
     Program PWSCF v.7.0 starts on  4Feb2022 at 15: 7: 7 

     This program is part of the open-source Quantum ESPRESSO suite
     for quantum simulation of materials; please cite
         "P. Giannozzi et al., J. Phys.:Condens. Matter 21 395502 (2009);
         "P. Giannozzi et al., J. Phys.:Condens. Matter 29 465901 (2017);
         "P. Giannozzi et al., J. Chem. Phys. 152 154105 (2020);
          URL http://www.quantum-espresso.org", 
     in publications or presentations arising from this work. More details at
     http://www.quantum-espresso.org/quote

     Parallel version (MPI), running on     1 processors

     MPI processes distributed on     1 nodes
     170 MiB available memory on the printing compute node when the environment starts

     Reading input from 01-nio-scf.in
     Message from routine read_cards :
     DEPRECATED: no units specified in CELL_PARAMETERS card

     Current dimensions of program PWSCF are:
     Max number of different atomic species (ntypx) = 10
     Max number of k-points (npk) =  40000
     Max angular momentum in pseudopotentials (lmaxx) =  4
     Message from routine volume:
     axis vectors are left-handed
     Message from routine setup:
     using ibrav=0 with symmetry is DISCOURAGED, use correct ibrav instead

     Subspace diagonalization in iterative solution of the eigenvalue problem:
     a serial algorithm will be used


     G-vector sticks info
     --------------------
     sticks:   dense  smooth     PW     G-vecs:    dense   smooth      PW
     Sum        1635     667    227                33087     8443    1701

     Using Slab Decomposition



     bravais-lattice index     =            0
     lattice parameter (alat)  =       7.8802  a.u.
     unit-cell volume          =     244.6666 (a.u.)^3
     number of atoms/cell      =            4
     number of atomic types    =            3
     number of electrons       =        48.00
     number of Kohn-Sham states=           30
     kinetic-energy cutoff     =      40.0000  Ry
     charge density cutoff     =     400.0000  Ry
     scf convergence threshold =      1.0E-08
     mixing beta               =       0.7000
     number of iterations used =            8  plain     mixing
     Exchange-correlation=  SLA  PW   PBX  PBC
                           (   1   4   3   4   0   0   0)

     celldm(1)=   7.880158  celldm(2)=   0.000000  celldm(3)=   0.000000
     celldm(4)=   0.000000  celldm(5)=   0.000000  celldm(6)=   0.000000

     crystal axes: (cart. coord. in units of alat)
               a(1) = (   0.500000   0.500000   1.000000 )  
               a(2) = (   0.500000   1.000000   0.500000 )  
               a(3) = (   1.000000   0.500000   0.500000 )  

     reciprocal axes: (cart. coord. in units 2 pi/alat)
               b(1) = ( -0.500000 -0.500000  1.500000 )  
               b(2) = ( -0.500000  1.500000 -0.500000 )  
               b(3) = (  1.500000 -0.500000 -0.500000 )  


     PseudoPot. # 1 for O  read from file:
     /home/user/pseudo_dir/o_pbe_v1.2.uspp.F.UPF
     MD5 check sum: 734c27235a0248c51dbae37a1fbe46ec
     Pseudo is Ultrasoft + core correction, Zval =  6.0
     Generated by new atomic code, or converted to UPF format
     Using radial grid of  737 points,  5 beta functions with: 
                l(1) =   0
                l(2) =   0
                l(3) =   1
                l(4) =   1
                l(5) =   2
     Q(r) pseudized with  8 coefficients,  rinner =    0.900   0.900   0.900
                                                       0.900   0.900

     PseudoPot. # 2 for Ni read from file:
     /home/user/pseudo_dir/ni_pbe_v1.4.uspp.F.UPF
     MD5 check sum: 1ee80287db30b12d2bc1f57a5b5d6409
     Pseudo is Ultrasoft + core correction, Zval = 18.0
     Generated by new atomic code, or converted to UPF format
     Using radial grid of  865 points,  6 beta functions with: 
                l(1) =   0
                l(2) =   0
                l(3) =   1
                l(4) =   1
                l(5) =   2
                l(6) =   2
     Q(r) pseudized with 10 coefficients,  rinner =    0.980   0.980   0.980
                                                       0.980   0.980

     PseudoPot. # 3 for Ni read from file:
     /home/user/pseudo_dir/ni_pbe_v1.4.uspp.F.UPF
     MD5 check sum: 1ee80287db30b12d2bc1f57a5b5d6409
     Pseudo is Ultrasoft + core correction, Zval = 18.0
     Generated by new atomic code, or converted to UPF format
     Using radial grid of  865 points,  6 beta functions with: 
                l(1) =   0
                l(2) =   0
                l(3) =   1
                l(4) =   1
                l(5) =   2
                l(6) =   2
     Q(r) pseudized with 10 coefficients,  rinner =    0.980   0.980   0.980
                                                       0.980   0.980

     atomic species   valence    mass     pseudopotential
        O              6.00    15.99940     O ( 1.00)
        Ni1           18.00    58.59340     Ni( 1.00)
        Ni2           18.00    58.59340     Ni( 1.00)

     Starting magnetic structure 
     atomic species   magnetization
        O            0.000
        Ni1          0.500
        Ni2         -0.500

     12 Sym. Ops., with inversion, found


                                    s                        frac. trans.

      isym =  1     identity                                     

 cryst.   s( 1) = (     1          0          0      )
                  (     0          1          0      )
                  (     0          0          1      )

 cart.    s( 1) = (  1.0000000  0.0000000  0.0000000 )
                  (  0.0000000  1.0000000  0.0000000 )
                  (  0.0000000  0.0000000  1.0000000 )


      isym =  2     180 deg rotation - cart. axis [1,-1,0]       

 cryst.   s( 2) = (    -1          0          0      )
                  (     0          0         -1      )
                  (     0         -1          0      )

 cart.    s( 2) = (  0.0000000 -1.0000000  0.0000000 )
                  ( -1.0000000  0.0000000  0.0000000 )
                  (  0.0000000  0.0000000 -1.0000000 )


      isym =  3     180 deg rotation - cart. axis [-1,0,1]       

 cryst.   s( 3) = (     0          0         -1      )
                  (     0         -1          0      )
                  (    -1          0          0      )

 cart.    s( 3) = (  0.0000000  0.0000000 -1.0000000 )
                  (  0.0000000 -1.0000000  0.0000000 )
                  ( -1.0000000  0.0000000  0.0000000 )


      isym =  4     180 deg rotation - cart. axis [0,1,-1]       

 cryst.   s( 4) = (     0         -1          0      )
                  (    -1          0          0      )
                  (     0          0         -1      )

 cart.    s( 4) = ( -1.0000000  0.0000000  0.0000000 )
                  (  0.0000000  0.0000000 -1.0000000 )
                  (  0.0000000 -1.0000000  0.0000000 )


      isym =  5     120 deg rotation - cart. axis [-1,-1,-1]     

 cryst.   s( 5) = (     0          1          0      )
                  (     0          0          1      )
                  (     1          0          0      )

 cart.    s( 5) = (  0.0000000  1.0000000  0.0000000 )
                  (  0.0000000  0.0000000  1.0000000 )
                  (  1.0000000  0.0000000  0.0000000 )


      isym =  6     120 deg rotation - cart. axis [1,1,1]        

 cryst.   s( 6) = (     0          0          1      )
                  (     1          0          0      )
                  (     0          1          0      )

 cart.    s( 6) = (  0.0000000  0.0000000  1.0000000 )
                  (  1.0000000  0.0000000  0.0000000 )
                  (  0.0000000  1.0000000  0.0000000 )


      isym =  7     inversion                                    

 cryst.   s( 7) = (    -1          0          0      )
                  (     0         -1          0      )
                  (     0          0         -1      )

 cart.    s( 7) = ( -1.0000000  0.0000000  0.0000000 )
                  (  0.0000000 -1.0000000  0.0000000 )
                  (  0.0000000  0.0000000 -1.0000000 )


      isym =  8     inv. 180 deg rotation - cart. axis [1,-1,0]  

 cryst.   s( 8) = (     1          0          0      )
                  (     0          0          1      )
                  (     0          1          0      )

 cart.    s( 8) = (  0.0000000  1.0000000  0.0000000 )
                  (  1.0000000  0.0000000  0.0000000 )
                  (  0.0000000  0.0000000  1.0000000 )


      isym =  9     inv. 180 deg rotation - cart. axis [-1,0,1]  

 cryst.   s( 9) = (     0          0          1      )
                  (     0          1          0      )
                  (     1          0          0      )

 cart.    s( 9) = (  0.0000000  0.0000000  1.0000000 )
                  (  0.0000000  1.0000000  0.0000000 )
                  (  1.0000000  0.0000000  0.0000000 )


      isym = 10     inv. 180 deg rotation - cart. axis [0,1,-1]  

 cryst.   s(10) = (     0          1          0      )
                  (     1          0          0      )
                  (     0          0          1      )

 cart.    s(10) = (  1.0000000  0.0000000  0.0000000 )
                  (  0.0000000  0.0000000  1.0000000 )
                  (  0.0000000  1.0000000  0.0000000 )


      isym = 11     inv. 120 deg rotation - cart. axis [-1,-1,-1]

 cryst.   s(11) = (     0         -1          0      )
                  (     0          0         -1      )
                  (    -1          0          0      )

 cart.    s(11) = (  0.0000000 -1.0000000  0.0000000 )
                  (  0.0000000  0.0000000 -1.0000000 )
                  ( -1.0000000  0.0000000  0.0000000 )


      isym = 12     inv. 120 deg rotation - cart. axis [1,1,1]   

 cryst.   s(12) = (     0          0         -1      )
                  (    -1          0          0      )
                  (     0         -1          0      )

 cart.    s(12) = (  0.0000000  0.0000000 -1.0000000 )
                  ( -1.0000000  0.0000000  0.0000000 )
                  (  0.0000000 -1.0000000  0.0000000 )


   Cartesian axes

     site n.     atom                  positions (alat units)
         1           O   tau(   1) = (   0.5000000   0.5000000   0.5000000  )
         2           O   tau(   2) = (   1.5000000   1.5000000   1.5000000  )
         3           Ni1 tau(   3) = (   0.0000000   0.0000000   0.0000000  )
         4           Ni2 tau(   4) = (   1.0000000   1.0000000   1.0000000  )

   Crystallographic axes

     site n.     atom                  positions (cryst. coord.)
         1           O   tau(   1) = (  0.2500000  0.2500000  0.2500000  )
         2           O   tau(   2) = (  0.7500000  0.7500000  0.7500000  )
         3           Ni1 tau(   3) = (  0.0000000  0.0000000  0.0000000  )
         4           Ni2 tau(   4) = (  0.5000000  0.5000000  0.5000000  )

     number of k points=    32  Methfessel-Paxton smearing, width (Ry)=  0.0100
                       cart. coord. in units 2pi/alat
        k(    1) = (   0.0000000   0.0000000   0.0000000), wk =   0.0046296
        k(    2) = (   0.2500000  -0.0833333  -0.0833333), wk =   0.0277778
        k(    3) = (   0.5000000  -0.1666667  -0.1666667), wk =   0.0277778
        k(    4) = (  -0.7500000   0.2500000   0.2500000), wk =   0.0138889
        k(    5) = (   0.1666667   0.1666667  -0.1666667), wk =   0.0277778
        k(    6) = (   0.4166667   0.0833333  -0.2500000), wk =   0.0555556
        k(    7) = (  -0.8333333   0.5000000   0.1666667), wk =   0.0555556
        k(    8) = (  -0.5833333   0.4166667   0.0833333), wk =   0.0555556
        k(    9) = (  -0.3333333   0.3333333  -0.0000000), wk =   0.0277778
        k(   10) = (   0.3333333   0.3333333  -0.3333333), wk =   0.0277778
        k(   11) = (  -0.9166667   0.7500000   0.0833333), wk =   0.0555556
        k(   12) = (  -0.6666667   0.6666667   0.0000000), wk =   0.0277778
        k(   13) = (  -0.5000000  -0.5000000   0.5000000), wk =   0.0138889
        k(   14) = (   0.0833333   0.0833333   0.0833333), wk =   0.0092593
        k(   15) = (   0.3333333   0.0000000   0.0000000), wk =   0.0277778
        k(   16) = (  -0.9166667   0.4166667   0.4166667), wk =   0.0277778
        k(   17) = (  -0.6666667   0.3333333   0.3333333), wk =   0.0277778
        k(   18) = (  -0.4166667   0.2500000   0.2500000), wk =   0.0277778
        k(   19) = (   0.2500000   0.2500000  -0.0833333), wk =   0.0277778
        k(   20) = (  -1.0000000   0.6666667   0.3333333), wk =   0.0555556
        k(   21) = (  -0.7500000   0.5833333   0.2500000), wk =   0.0555556
        k(   22) = (  -0.5000000   0.5000000   0.1666667), wk =   0.0555556
        k(   23) = (  -0.5833333  -0.5833333   0.7500000), wk =   0.0277778
        k(   24) = (  -0.3333333  -0.6666667   0.6666667), wk =   0.0555556
        k(   25) = (  -0.0833333  -0.7500000   0.5833333), wk =   0.0277778
        k(   26) = (  -0.4166667  -0.4166667   0.5833333), wk =   0.0277778
        k(   27) = (   0.1666667   0.1666667   0.1666667), wk =   0.0092593
        k(   28) = (  -1.0833333   0.5833333   0.5833333), wk =   0.0277778
        k(   29) = (  -0.8333333   0.5000000   0.5000000), wk =   0.0277778
        k(   30) = (  -0.6666667  -0.6666667   1.0000000), wk =   0.0277778
        k(   31) = (  -0.4166667  -0.7500000   0.9166667), wk =   0.0277778
        k(   32) = (  -0.2500000  -0.2500000  -0.2500000), wk =   0.0046296

                       cryst. coord.
        k(    1) = (   0.0000000   0.0000000   0.0000000), wk =   0.0046296
        k(    2) = (   0.0000000   0.0000000   0.1666667), wk =   0.0277778
        k(    3) = (   0.0000000   0.0000000   0.3333333), wk =   0.0277778
        k(    4) = (   0.0000000   0.0000000  -0.5000000), wk =   0.0138889
        k(    5) = (   0.0000000   0.1666667   0.1666667), wk =   0.0277778
        k(    6) = (   0.0000000   0.1666667   0.3333333), wk =   0.0555556
        k(    7) = (   0.0000000   0.1666667  -0.5000000), wk =   0.0555556
        k(    8) = (   0.0000000   0.1666667  -0.3333333), wk =   0.0555556
        k(    9) = (   0.0000000   0.1666667  -0.1666667), wk =   0.0277778
        k(   10) = (   0.0000000   0.3333333   0.3333333), wk =   0.0277778
        k(   11) = (   0.0000000   0.3333333  -0.5000000), wk =   0.0555556
        k(   12) = (   0.0000000   0.3333333  -0.3333333), wk =   0.0277778
        k(   13) = (   0.0000000  -0.5000000  -0.5000000), wk =   0.0138889
        k(   14) = (   0.1666667   0.1666667   0.1666667), wk =   0.0092593
        k(   15) = (   0.1666667   0.1666667   0.3333333), wk =   0.0277778
        k(   16) = (   0.1666667   0.1666667  -0.5000000), wk =   0.0277778
        k(   17) = (   0.1666667   0.1666667  -0.3333333), wk =   0.0277778
        k(   18) = (   0.1666667   0.1666667  -0.1666667), wk =   0.0277778
        k(   19) = (   0.1666667   0.3333333   0.3333333), wk =   0.0277778
        k(   20) = (   0.1666667   0.3333333  -0.5000000), wk =   0.0555556
        k(   21) = (   0.1666667   0.3333333  -0.3333333), wk =   0.0555556
        k(   22) = (   0.1666667   0.3333333  -0.1666667), wk =   0.0555556
        k(   23) = (   0.1666667  -0.5000000  -0.5000000), wk =   0.0277778
        k(   24) = (   0.1666667  -0.5000000  -0.3333333), wk =   0.0555556
        k(   25) = (   0.1666667  -0.5000000  -0.1666667), wk =   0.0277778
        k(   26) = (   0.1666667  -0.3333333  -0.3333333), wk =   0.0277778
        k(   27) = (   0.3333333   0.3333333   0.3333333), wk =   0.0092593
        k(   28) = (   0.3333333   0.3333333  -0.5000000), wk =   0.0277778
        k(   29) = (   0.3333333   0.3333333  -0.3333333), wk =   0.0277778
        k(   30) = (   0.3333333  -0.5000000  -0.5000000), wk =   0.0277778
        k(   31) = (   0.3333333  -0.5000000  -0.3333333), wk =   0.0277778
        k(   32) = (  -0.5000000  -0.5000000  -0.5000000), wk =   0.0046296

     Dense  grid:    33087 G-vectors     FFT dimensions: (  64,  64,  64)

     Smooth grid:     8443 G-vectors     FFT dimensions: (  40,  40,  40)

     Dynamical RAM for                 wfc:       0.48 MB

     Dynamical RAM for     wfc (w. buffer):      31.09 MB

     Dynamical RAM for           str. fact:       1.51 MB

     Dynamical RAM for           local pot:       0.00 MB

     Dynamical RAM for          nlocal pot:       0.99 MB

     Dynamical RAM for                qrad:       4.82 MB

     Dynamical RAM for          rho,v,vnew:      15.03 MB

     Dynamical RAM for               rhoin:       5.01 MB

     Dynamical RAM for            rho*nmix:      16.16 MB

     Dynamical RAM for           G-vectors:       1.96 MB

     Dynamical RAM for          h,s,v(r/c):       0.16 MB

     Dynamical RAM for          <psi|beta>:       0.03 MB

     Dynamical RAM for                 psi:       0.96 MB

     Dynamical RAM for                hpsi:       0.96 MB

     Dynamical RAM for                spsi:       0.96 MB

     Dynamical RAM for      wfcinit/wfcrot:       1.11 MB

     Dynamical RAM for           addusdens:      95.42 MB

     Dynamical RAM for          addusforce:      96.45 MB

     Dynamical RAM for         addusstress:     102.24 MB

     Estimated static dynamical RAM per process >      74.43 MB

     Estimated max dynamical RAM per process >     192.82 MB

     Check: negative core charge=   -0.000010
     Generating pointlists ...
     new r_m :   0.2063 (alat units)  1.6253 (a.u.) for type    1
     new r_m :   0.2063 (alat units)  1.6253 (a.u.) for type    2
     new r_m :   0.2063 (alat units)  1.6253 (a.u.) for type    3

     Initial potential from superposition of free atoms

     starting charge      44.0000, renormalised to      48.0000
     Starting wfcs are   34 randomized atomic wfcs

     total cpu time spent up to now is       11.7 secs

     Self-consistent Calculation

     iteration #  1     ecut=    40.00 Ry     beta= 0.70
     Davidson diagonalization with overlap

---- Real-time Memory Report at c_bands before calling an iterative solver
           153 MiB given to the printing process from OS
             0 MiB allocation reported by mallinfo(arena+hblkhd)
           190 MiB available memory on the node where the printing process lives
------------------
     ethr =  1.00E-02,  avg # of iterations =  3.8

     total cpu time spent up to now is       45.7 secs

     total energy              =    -715.51852636 Ry
     estimated scf accuracy    <      58.91889703 Ry

     total magnetization       =    -0.03 Bohr mag/cell
     absolute magnetization    =     7.34 Bohr mag/cell

     iteration #  2     ecut=    40.00 Ry     beta= 0.70
     Davidson diagonalization with overlap

---- Real-time Memory Report at c_bands before calling an iterative solver
           203 MiB given to the printing process from OS
             0 MiB allocation reported by mallinfo(arena+hblkhd)
           187 MiB available memory on the node where the printing process lives
------------------
     ethr =  1.00E-02,  avg # of iterations =  3.8

     total cpu time spent up to now is       77.4 secs

     total energy              =    -742.45657531 Ry
     estimated scf accuracy    <     118.34888804 Ry

     total magnetization       =    -0.01 Bohr mag/cell
     absolute magnetization    =     1.09 Bohr mag/cell

     iteration #  3     ecut=    40.00 Ry     beta= 0.70
     Davidson diagonalization with overlap

---- Real-time Memory Report at c_bands before calling an iterative solver
           203 MiB given to the printing process from OS
             0 MiB allocation reported by mallinfo(arena+hblkhd)
           187 MiB available memory on the node where the printing process lives
------------------
     ethr =  1.00E-02,  avg # of iterations =  4.3

     total cpu time spent up to now is      114.9 secs

     total energy              =    -747.94441666 Ry
     estimated scf accuracy    <      13.74550672 Ry

     total magnetization       =    -0.01 Bohr mag/cell
     absolute magnetization    =     0.41 Bohr mag/cell

     iteration #  4     ecut=    40.00 Ry     beta= 0.70
     Davidson diagonalization with overlap

---- Real-time Memory Report at c_bands before calling an iterative solver
           204 MiB given to the printing process from OS
             0 MiB allocation reported by mallinfo(arena+hblkhd)
           187 MiB available memory on the node where the printing process lives
------------------
     ethr =  1.00E-02,  avg # of iterations =  2.3

     total cpu time spent up to now is      142.1 secs

     total energy              =    -750.37067844 Ry
     estimated scf accuracy    <       1.93500729 Ry

     total magnetization       =    -0.01 Bohr mag/cell
     absolute magnetization    =     3.67 Bohr mag/cell

     iteration #  5     ecut=    40.00 Ry     beta= 0.70
     Davidson diagonalization with overlap

---- Real-time Memory Report at c_bands before calling an iterative solver
           204 MiB given to the printing process from OS
             0 MiB allocation reported by mallinfo(arena+hblkhd)
           209 MiB available memory on the node where the printing process lives
------------------
     ethr =  4.03E-03,  avg # of iterations =  2.2

     total cpu time spent up to now is      167.7 secs

     total energy              =    -750.77652748 Ry
     estimated scf accuracy    <       2.02622555 Ry

     total magnetization       =     0.04 Bohr mag/cell
     absolute magnetization    =     1.71 Bohr mag/cell

     iteration #  6     ecut=    40.00 Ry     beta= 0.70
     Davidson diagonalization with overlap

---- Real-time Memory Report at c_bands before calling an iterative solver
           205 MiB given to the printing process from OS
             0 MiB allocation reported by mallinfo(arena+hblkhd)
           209 MiB available memory on the node where the printing process lives
------------------
     ethr =  4.03E-03,  avg # of iterations =  1.1

     total cpu time spent up to now is      189.0 secs

     total energy              =    -751.00926876 Ry
     estimated scf accuracy    <       0.10678015 Ry

     total magnetization       =    -0.00 Bohr mag/cell
     absolute magnetization    =     2.81 Bohr mag/cell

     iteration #  7     ecut=    40.00 Ry     beta= 0.70
     Davidson diagonalization with overlap

---- Real-time Memory Report at c_bands before calling an iterative solver
           205 MiB given to the printing process from OS
             0 MiB allocation reported by mallinfo(arena+hblkhd)
           207 MiB available memory on the node where the printing process lives
------------------
     ethr =  2.22E-04,  avg # of iterations =  4.2

     total cpu time spent up to now is      209.6 secs

     total energy              =    -750.97665499 Ry
     estimated scf accuracy    <       0.94691861 Ry

     total magnetization       =     0.62 Bohr mag/cell
     absolute magnetization    =     2.70 Bohr mag/cell

     iteration #  8     ecut=    40.00 Ry     beta= 0.70
     Davidson diagonalization with overlap

---- Real-time Memory Report at c_bands before calling an iterative solver
           206 MiB given to the printing process from OS
             0 MiB allocation reported by mallinfo(arena+hblkhd)
           209 MiB available memory on the node where the printing process lives
------------------
     ethr =  2.22E-04,  avg # of iterations =  2.0

     total cpu time spent up to now is      231.8 secs

     total energy              =    -751.04015488 Ry
     estimated scf accuracy    <       0.02513260 Ry

     total magnetization       =     0.00 Bohr mag/cell
     absolute magnetization    =     2.90 Bohr mag/cell

     iteration #  9     ecut=    40.00 Ry     beta= 0.70
     Davidson diagonalization with overlap

---- Real-time Memory Report at c_bands before calling an iterative solver
           207 MiB given to the printing process from OS
             0 MiB allocation reported by mallinfo(arena+hblkhd)
           208 MiB available memory on the node where the printing process lives
------------------
     ethr =  5.24E-05,  avg # of iterations =  1.2

     total cpu time spent up to now is      255.4 secs

     total energy              =    -751.03759289 Ry
     estimated scf accuracy    <       0.02172469 Ry

     total magnetization       =     0.00 Bohr mag/cell
     absolute magnetization    =     2.94 Bohr mag/cell

     iteration # 10     ecut=    40.00 Ry     beta= 0.70
     Davidson diagonalization with overlap

---- Real-time Memory Report at c_bands before calling an iterative solver
           207 MiB given to the printing process from OS
             0 MiB allocation reported by mallinfo(arena+hblkhd)
           208 MiB available memory on the node where the printing process lives
------------------
     ethr =  4.53E-05,  avg # of iterations =  1.1

     total cpu time spent up to now is      276.2 secs

     total energy              =    -751.03659599 Ry
     estimated scf accuracy    <       0.00512425 Ry

     total magnetization       =     0.00 Bohr mag/cell
     absolute magnetization    =     2.94 Bohr mag/cell

     iteration # 11     ecut=    40.00 Ry     beta= 0.70
     Davidson diagonalization with overlap

---- Real-time Memory Report at c_bands before calling an iterative solver
           207 MiB given to the printing process from OS
             0 MiB allocation reported by mallinfo(arena+hblkhd)
           208 MiB available memory on the node where the printing process lives
------------------
     ethr =  1.07E-05,  avg # of iterations =  2.3

     total cpu time spent up to now is      299.2 secs

     total energy              =    -751.03773946 Ry
     estimated scf accuracy    <       0.00101464 Ry

     total magnetization       =    -0.00 Bohr mag/cell
     absolute magnetization    =     2.94 Bohr mag/cell

     iteration # 12     ecut=    40.00 Ry     beta= 0.70
     Davidson diagonalization with overlap

---- Real-time Memory Report at c_bands before calling an iterative solver
           207 MiB given to the printing process from OS
             0 MiB allocation reported by mallinfo(arena+hblkhd)
           208 MiB available memory on the node where the printing process lives
------------------
     ethr =  2.11E-06,  avg # of iterations =  2.3

     total cpu time spent up to now is      320.7 secs

     total energy              =    -751.03785076 Ry
     estimated scf accuracy    <       0.00000414 Ry

     total magnetization       =    -0.00 Bohr mag/cell
     absolute magnetization    =     2.94 Bohr mag/cell

     iteration # 13     ecut=    40.00 Ry     beta= 0.70
     Davidson diagonalization with overlap

---- Real-time Memory Report at c_bands before calling an iterative solver
           207 MiB given to the printing process from OS
             0 MiB allocation reported by mallinfo(arena+hblkhd)
           208 MiB available memory on the node where the printing process lives
------------------
     ethr =  8.63E-09,  avg # of iterations =  2.3

     total cpu time spent up to now is      347.6 secs

     total energy              =    -751.03785347 Ry
     estimated scf accuracy    <       0.00000048 Ry

     total magnetization       =     0.00 Bohr mag/cell
     absolute magnetization    =     2.94 Bohr mag/cell

     iteration # 14     ecut=    40.00 Ry     beta= 0.70
     Davidson diagonalization with overlap

---- Real-time Memory Report at c_bands before calling an iterative solver
           207 MiB given to the printing process from OS
             0 MiB allocation reported by mallinfo(arena+hblkhd)
           207 MiB available memory on the node where the printing process lives
------------------
     ethr =  1.01E-09,  avg # of iterations =  2.0

     total cpu time spent up to now is      369.2 secs

     total energy              =    -751.03785358 Ry
     estimated scf accuracy    <       0.00000006 Ry

     total magnetization       =    -0.00 Bohr mag/cell
     absolute magnetization    =     2.94 Bohr mag/cell

     iteration # 15     ecut=    40.00 Ry     beta= 0.70
     Davidson diagonalization with overlap

---- Real-time Memory Report at c_bands before calling an iterative solver
           207 MiB given to the printing process from OS
             0 MiB allocation reported by mallinfo(arena+hblkhd)
           208 MiB available memory on the node where the printing process lives
------------------
     ethr =  1.21E-10,  avg # of iterations =  1.4

     total cpu time spent up to now is      391.1 secs

     total energy              =    -751.03785358 Ry
     estimated scf accuracy    <       0.00000002 Ry

     total magnetization       =    -0.00 Bohr mag/cell
     absolute magnetization    =     2.94 Bohr mag/cell

     iteration # 16     ecut=    40.00 Ry     beta= 0.70
     Davidson diagonalization with overlap

---- Real-time Memory Report at c_bands before calling an iterative solver
           207 MiB given to the printing process from OS
             0 MiB allocation reported by mallinfo(arena+hblkhd)
           208 MiB available memory on the node where the printing process lives
------------------
     ethr =  3.38E-11,  avg # of iterations =  1.0

     Magnetic moment per site  (integrated on atomic sphere of radius R)
     atom   1 (R=0.206)  charge=  5.6603  magn= -0.0000
     atom   2 (R=0.206)  charge=  5.6603  magn= -0.0000
     atom   3 (R=0.206)  charge= 15.6792  magn=  1.3288
     atom   4 (R=0.206)  charge= 15.6792  magn= -1.3287

     total cpu time spent up to now is      411.5 secs

     End of self-consistent calculation

 ------ SPIN UP ------------


          k = 0.0000 0.0000 0.0000 (  1075 PWs)   bands (ev):

   -89.9983 -88.1418 -50.4008 -50.3699 -50.3699 -48.5961 -48.5771 -48.5771
    -5.9448  -4.5250   6.1737   8.8329   8.8329  11.4319  11.4319  11.4393
    11.9261  11.9261  12.0182  12.3696  12.3696  13.3071  13.3071  13.5793
    15.8505  15.8505  16.0248  20.0019  24.5260  28.4942

     occupation numbers 
     1.0000   1.0000   1.0000   1.0000   1.0000   1.0000   1.0000   1.0000
     1.0000   1.0000   1.0000   1.0000   1.0000   1.0000   1.0000   1.0000
     1.0000   1.0000   1.0000   1.0000   1.0000   1.0000   1.0000   1.0000
    -0.0000  -0.0000  -0.0000  -0.0000  -0.0000  -0.0000

          k = 0.2500-0.0833-0.0833 (  1060 PWs)   bands (ev):

   -89.9979 -88.1412 -50.3998 -50.3755 -50.3712 -48.5951 -48.5834 -48.5786
    -5.6614  -4.4805   6.6449   8.6475   8.9080   9.5086  10.5466  10.6299
    11.9404  12.3450  12.3996  12.6719  13.0511  13.4267  13.4718  13.6170
    15.1477  15.6784  17.6441  21.4874  24.1580  26.6890

     occupation numbers 
     1.0000   1.0000   1.0000   1.0000   1.0000   1.0000   1.0000   1.0000
     1.0000   1.0000   1.0000   1.0000   1.0000   1.0000   1.0000   1.0000
     1.0000   1.0000   1.0000   1.0000   1.0000   1.0000   1.0000   1.0000
    -0.0000  -0.0000  -0.0000  -0.0000  -0.0000  -0.0000

          k = 0.5000-0.1667-0.1667 (  1050 PWs)   bands (ev):

   -89.9969 -88.1402 -50.3982 -50.3870 -50.3741 -48.5963 -48.5934 -48.5818
    -5.0154  -4.3985   7.5293   7.6977   8.1348   9.0372   9.4801   9.8843
    11.8724  12.4800  12.7484  12.9709  13.1524  13.2321  13.7772  13.7840
    15.1573  15.3829  20.1962  23.2676  23.7290  25.0120

     occupation numbers 
     1.0000   1.0000   1.0000   1.0000   1.0000   1.0000   1.0000   1.0000
     1.0000   1.0000   1.0000   1.0000   1.0000   1.0000   1.0000   1.0000
     1.0000   1.0000   1.0000   1.0000   1.0000   1.0000   1.0000   1.0000
    -0.0000  -0.0000  -0.0000  -0.0000  -0.0000  -0.0000

          k =-0.7500 0.2500 0.2500 (  1038 PWs)   bands (ev):

   -89.9964 -88.1396 -50.3972 -50.3927 -50.3755 -48.6027 -48.5924 -48.5833
    -4.5110  -4.4961   7.1699   7.2567   8.5172   8.8485   9.0927   9.6087
    11.8585  12.5228  12.8328  12.8340  13.4316  13.5740  13.6881  13.8433
    15.2601  15.2925  21.9124  22.0640  24.1909  24.3330

     occupation numbers 
     1.0000   1.0000   1.0000   1.0000   1.0000   1.0000   1.0000   1.0000
     1.0000   1.0000   1.0000   1.0000   1.0000   1.0000   1.0000   1.0000
     1.0000   1.0000   1.0000   1.0000   1.0000   1.0000   1.0000   1.0000
    -0.0000  -0.0000  -0.0000  -0.0000  -0.0000  -0.0000

          k = 0.1667 0.1667-0.1667 (  1058 PWs)   bands (ev):

   -89.9979 -88.1412 -50.3998 -50.3756 -50.3712 -48.5951 -48.5834 -48.5786
    -5.6346  -4.5163   6.7216   8.6605   9.0273   9.5224  10.3289  10.3308
    12.0502  12.2088  12.3412  13.0102  13.0736  13.3490  13.6424  13.6943
    15.3337  15.4076  17.6100  21.4024  24.2119  26.8621

     occupation numbers 
     1.0000   1.0000   1.0000   1.0000   1.0000   1.0000   1.0000   1.0000
     1.0000   1.0000   1.0000   1.0000   1.0000   1.0000   1.0000   1.0000
     1.0000   1.0000   1.0000   1.0000   1.0000   1.0000   1.0000   1.0000
    -0.0000  -0.0000  -0.0000  -0.0000  -0.0000  -0.0000

          k = 0.4167 0.0833-0.2500 (  1052 PWs)   bands (ev):

   -89.9971 -88.1404 -50.3985 -50.3831 -50.3745 -48.5938 -48.5919 -48.5823
    -5.1564  -4.4564   7.3596   7.9743   8.6209   8.9834   9.5184   9.8535
    12.1137  12.4196  12.5751  12.8069  13.2296  13.3796  13.5984  13.7789
    15.1484  15.4197  19.6100  22.6794  24.2573  25.5757

     occupation numbers 
     1.0000   1.0000   1.0000   1.0000   1.0000   1.0000   1.0000   1.0000
     1.0000   1.0000   1.0000   1.0000   1.0000   1.0000   1.0000   1.0000
     1.0000   1.0000   1.0000   1.0000   1.0000   1.0000   1.0000   1.0000
    -0.0000  -0.0000  -0.0000  -0.0000  -0.0000  -0.0000

          k =-0.8333 0.5000 0.1667 (  1042 PWs)   bands (ev):

   -89.9964 -88.1397 -50.3972 -50.3898 -50.3785 -48.5995 -48.5924 -48.5867
    -4.6116  -4.3981   7.3248   7.4144   8.4048   8.9431   9.1011   9.1769
    12.1657  12.5361  12.6720  13.0110  13.0716  13.4826  13.6915  13.7947
    15.2079  15.4331  21.8064  23.4631  23.4898  25.1066

     occupation numbers 
     1.0000   1.0000   1.0000   1.0000   1.0000   1.0000   1.0000   1.0000
     1.0000   1.0000   1.0000   1.0000   1.0000   1.0000   1.0000   1.0000
     1.0000   1.0000   1.0000   1.0000   1.0000   1.0000   1.0000   1.0000
    -0.0000  -0.0000  -0.0000  -0.0000  -0.0000  -0.0000

          k =-0.5833 0.4167 0.0833 (  1037 PWs)   bands (ev):

   -89.9964 -88.1397 -50.3973 -50.3898 -50.3784 -48.5995 -48.5925 -48.5866
    -4.6370  -4.3742   7.1628   7.8612   8.3887   8.8550   8.9350   9.0923
    12.2297  12.5295  12.7329  12.9811  13.1287  13.3032  13.7088  13.7894
    15.0280  15.7425  21.5666  22.9010  24.6900  24.9678

     occupation numbers 
     1.0000   1.0000   1.0000   1.0000   1.0000   1.0000   1.0000   1.0000
     1.0000   1.0000   1.0000   1.0000   1.0000   1.0000   1.0000   1.0000
     1.0000   1.0000   1.0000   1.0000   1.0000   1.0000   1.0000   1.0000
    -0.0000  -0.0000  -0.0000  -0.0000  -0.0000  -0.0000

          k =-0.3333 0.3333-0.0000 (  1051 PWs)   bands (ev):

   -89.9971 -88.1405 -50.3985 -50.3831 -50.3745 -48.5938 -48.5919 -48.5822
    -5.2072  -4.3984   7.4172   8.1235   8.4016   8.9648   9.4614   9.8395
    12.1855  12.5345  12.5492  12.7886  13.2408  13.2736  13.6598  13.7343
    15.1366  15.5251  19.3669  23.4650  23.4864  25.5751

     occupation numbers 
     1.0000   1.0000   1.0000   1.0000   1.0000   1.0000   1.0000   1.0000
     1.0000   1.0000   1.0000   1.0000   1.0000   1.0000   1.0000   1.0000
     1.0000   1.0000   1.0000   1.0000   1.0000   1.0000   1.0000   1.0000
    -0.0000  -0.0000  -0.0000  -0.0000  -0.0000  -0.0000

          k = 0.3333 0.3333-0.3333 (  1052 PWs)   bands (ev):

   -89.9969 -88.1402 -50.3981 -50.3871 -50.3742 -48.5964 -48.5933 -48.5819
    -4.9323  -4.4877   7.1756   7.4794   8.9598   9.1376   9.3225   9.7617
    11.7591  12.4750  12.5949  13.0715  13.1250  13.4619  13.7431  13.7649
    15.4940  15.5611  19.5908  21.5749  24.8053  25.3214

     occupation numbers 
     1.0000   1.0000   1.0000   1.0000   1.0000   1.0000   1.0000   1.0000
     1.0000   1.0000   1.0000   1.0000   1.0000   1.0000   1.0000   1.0000
     1.0000   1.0000   1.0000   1.0000   1.0000   1.0000   1.0000   1.0000
    -0.0000  -0.0000  -0.0000  -0.0000  -0.0000  -0.0000

          k =-0.9167 0.7500 0.0833 (  1042 PWs)   bands (ev):

   -89.9964 -88.1397 -50.3972 -50.3899 -50.3785 -48.5995 -48.5924 -48.5867
    -4.5805  -4.4245   6.7132   7.6289   8.7696   8.8977   9.0683   9.5025
    11.9600  12.4395  12.6384  13.0222  13.1770  13.5518  13.6890  13.7921
    15.2635  15.7642  21.0411  21.7427  24.4670  24.9168

     occupation numbers 
     1.0000   1.0000   1.0000   1.0000   1.0000   1.0000   1.0000   1.0000
     1.0000   1.0000   1.0000   1.0000   1.0000   1.0000   1.0000   1.0000
     1.0000   1.0000   1.0000   1.0000   1.0000   1.0000   1.0000   1.0000
    -0.0000  -0.0000  -0.0000  -0.0000  -0.0000  -0.0000

          k =-0.6667 0.6667 0.0000 (  1048 PWs)   bands (ev):

   -89.9962 -88.1394 -50.3969 -50.3861 -50.3861 -48.5952 -48.5952 -48.5920
    -4.3983  -4.3982   7.4102   7.5509   8.1304   8.3982   8.9641   9.1411
    12.3968  12.5277  12.5412  13.0274  13.2955  13.4831  13.6891  13.7600
    15.2712  15.4549  23.2301  23.4898  23.4956  23.7384

     occupation numbers 
     1.0000   1.0000   1.0000   1.0000   1.0000   1.0000   1.0000   1.0000
     1.0000   1.0000   1.0000   1.0000   1.0000   1.0000   1.0000   1.0000
     1.0000   1.0000   1.0000   1.0000   1.0000   1.0000   1.0000   1.0000
    -0.0000  -0.0000  -0.0000  -0.0000  -0.0000  -0.0000

          k =-0.5000-0.5000 0.5000 (  1068 PWs)   bands (ev):

   -89.9965 -88.1397 -50.3974 -50.3930 -50.3757 -48.6029 -48.5925 -48.5835
    -4.5245  -4.4681   6.1691   7.4681   8.8373   8.8574  10.1164  10.1207
    11.1319  12.4420  12.6647  12.8785  13.0544  13.4617  13.7034  13.8220
    15.8960  15.9621  20.0050  20.6906  24.5237  25.0261

     occupation numbers 
     1.0000   1.0000   1.0000   1.0000   1.0000   1.0000   1.0000   1.0000
     1.0000   1.0000   1.0000   1.0000   1.0000   1.0000   1.0000   1.0000
     1.0000   1.0000   1.0000   1.0000   1.0000   1.0000   1.0000   1.0000
    -0.0000  -0.0000  -0.0000  -0.0000  -0.0000  -0.0000

          k = 0.0833 0.0833 0.0833 (  1056 PWs)   bands (ev):

   -89.9983 -88.1417 -50.4006 -50.3697 -50.3697 -48.5960 -48.5769 -48.5769
    -5.8639  -4.6389   6.4396   8.9195   8.9195  10.7461  11.0002  11.0002
    11.9526  11.9526  12.2192  12.8013  12.8013  13.2882  13.2882  13.5079
    15.7392  15.7392  16.5241  19.9508  24.6757  28.7822

     occupation numbers 
     1.0000   1.0000   1.0000   1.0000   1.0000   1.0000   1.0000   1.0000
     1.0000   1.0000   1.0000   1.0000   1.0000   1.0000   1.0000   1.0000
     1.0000   1.0000   1.0000   1.0000   1.0000   1.0000   1.0000   1.0000
    -0.0000  -0.0000  -0.0000  -0.0000  -0.0000  -0.0000

          k = 0.3333 0.0000 0.0000 (  1052 PWs)   bands (ev):

   -89.9978 -88.1412 -50.3997 -50.3755 -50.3712 -48.5951 -48.5834 -48.5786
    -5.5484  -4.6256   6.9094   8.7624   8.9333   9.0912  10.6470  10.6571
    11.7722  12.3597  12.5453  12.5802  12.9017  13.3874  13.4525  13.6387
    14.8424  15.8143  18.3396  21.1656  24.6877  26.7692

     occupation numbers 
     1.0000   1.0000   1.0000   1.0000   1.0000   1.0000   1.0000   1.0000
     1.0000   1.0000   1.0000   1.0000   1.0000   1.0000   1.0000   1.0000
     1.0000   1.0000   1.0000   1.0000   1.0000   1.0000   1.0000   1.0000
    -0.0000  -0.0000  -0.0000  -0.0000  -0.0000  -0.0000

          k =-0.9167 0.4167 0.4167 (  1045 PWs)   bands (ev):

   -89.9969 -88.1402 -50.3981 -50.3870 -50.3740 -48.5963 -48.5933 -48.5818
    -4.9368  -4.4811   7.1169   7.6122   8.5390   8.9429   9.9178  10.1092
    11.6084  12.4611  12.7477  12.8877  12.8981  13.3301  13.6745  13.8360
    14.9119  15.6732  20.6330  22.4511  24.1836  25.4858

     occupation numbers 
     1.0000   1.0000   1.0000   1.0000   1.0000   1.0000   1.0000   1.0000
     1.0000   1.0000   1.0000   1.0000   1.0000   1.0000   1.0000   1.0000
     1.0000   1.0000   1.0000   1.0000   1.0000   1.0000   1.0000   1.0000
    -0.0000  -0.0000  -0.0000  -0.0000  -0.0000  -0.0000

          k =-0.6667 0.3333 0.3333 (  1048 PWs)   bands (ev):

   -89.9965 -88.1397 -50.3973 -50.3928 -50.3756 -48.6028 -48.5925 -48.5834
    -4.5173  -4.4862   6.7156   7.4756   8.6626   9.0015   9.0889   9.7553
    11.7245  12.5121  12.7331  12.9614  13.3616  13.4184  13.6931  13.8391
    15.4474  15.4531  21.3927  21.5828  24.2103  24.8135

     occupation numbers 
     1.0000   1.0000   1.0000   1.0000   1.0000   1.0000   1.0000   1.0000
     1.0000   1.0000   1.0000   1.0000   1.0000   1.0000   1.0000   1.0000
     1.0000   1.0000   1.0000   1.0000   1.0000   1.0000   1.0000   1.0000
    -0.0000  -0.0000  -0.0000  -0.0000  -0.0000  -0.0000

          k =-0.4167 0.2500 0.2500 (  1041 PWs)   bands (ev):

   -89.9969 -88.1402 -50.3980 -50.3870 -50.3741 -48.5963 -48.5932 -48.5818
    -5.0138  -4.4010   7.4978   7.6818   8.2855   9.1642   9.2844   9.6895
    11.9407  12.4817  12.6601  12.9691  13.2486  13.3835  13.7288  13.8772
    15.2621  15.4859  19.7089  22.3278  24.4947  25.2968

     occupation numbers 
     1.0000   1.0000   1.0000   1.0000   1.0000   1.0000   1.0000   1.0000
     1.0000   1.0000   1.0000   1.0000   1.0000   1.0000   1.0000   1.0000
     1.0000   1.0000   1.0000   1.0000   1.0000   1.0000   1.0000   1.0000
    -0.0000  -0.0000  -0.0000  -0.0000  -0.0000  -0.0000

          k = 0.2500 0.2500-0.0833 (  1053 PWs)   bands (ev):

   -89.9978 -88.1412 -50.3996 -50.3755 -50.3712 -48.5951 -48.5834 -48.5785
    -5.4727  -4.7188   7.1068   8.7818   9.0419   9.2506   9.9829  10.2325
    12.0119  12.1709  12.4675  13.1069  13.1093  13.1277  13.5921  13.8964
    15.2585  15.2662  18.3245  20.9522  24.8966  27.2523

     occupation numbers 
     1.0000   1.0000   1.0000   1.0000   1.0000   1.0000   1.0000   1.0000
     1.0000   1.0000   1.0000   1.0000   1.0000   1.0000   1.0000   1.0000
     1.0000   1.0000   1.0000   1.0000   1.0000   1.0000   1.0000   1.0000
    -0.0000  -0.0000  -0.0000  -0.0000  -0.0000  -0.0000

          k =-1.0000 0.6667 0.3333 (  1044 PWs)   bands (ev):

   -89.9971 -88.1404 -50.3984 -50.3830 -50.3745 -48.5937 -48.5918 -48.5822
    -5.0154  -4.6117   7.3200   7.6913   9.0621   9.0993   9.4604   9.8878
    11.9925  12.2578  12.6177  12.7996  13.1815  13.4731  13.5877  13.8406
    15.0769  15.3609  20.1968  21.8096  25.0974  25.7907

     occupation numbers 
     1.0000   1.0000   1.0000   1.0000   1.0000   1.0000   1.0000   1.0000
     1.0000   1.0000   1.0000   1.0000   1.0000   1.0000   1.0000   1.0000
     1.0000   1.0000   1.0000   1.0000   1.0000   1.0000   1.0000   1.0000
    -0.0000  -0.0000  -0.0000  -0.0000  -0.0000  -0.0000

          k =-0.7500 0.5833 0.2500 (  1048 PWs)   bands (ev):

   -89.9965 -88.1397 -50.3973 -50.3900 -50.3785 -48.5995 -48.5925 -48.5867
    -4.5565  -4.4494   6.9611   7.3913   8.5358   9.0085   9.1377   9.5195
    11.9800  12.4781  12.5960  13.0417  13.1921  13.5626  13.7336  13.7925
    15.2694  15.4205  21.7098  22.2658  23.8882  24.8522

     occupation numbers 
     1.0000   1.0000   1.0000   1.0000   1.0000   1.0000   1.0000   1.0000
     1.0000   1.0000   1.0000   1.0000   1.0000   1.0000   1.0000   1.0000
     1.0000   1.0000   1.0000   1.0000   1.0000   1.0000   1.0000   1.0000
    -0.0000  -0.0000  -0.0000  -0.0000  -0.0000  -0.0000

          k =-0.5000 0.5000 0.1667 (  1038 PWs)   bands (ev):

   -89.9964 -88.1397 -50.3972 -50.3899 -50.3784 -48.5995 -48.5924 -48.5867
    -4.6253  -4.3835   6.9045   7.8169   8.7585   8.8745   8.9564   9.0780
    12.1714  12.4920  12.6718  13.0347  13.0679  13.3914  13.7064  13.8032
    15.0624  15.9046  21.1668  22.2585  24.6882  24.9879

     occupation numbers 
     1.0000   1.0000   1.0000   1.0000   1.0000   1.0000   1.0000   1.0000
     1.0000   1.0000   1.0000   1.0000   1.0000   1.0000   1.0000   1.0000
     1.0000   1.0000   1.0000   1.0000   1.0000   1.0000   1.0000   1.0000
    -0.0000  -0.0000  -0.0000  -0.0000  -0.0000  -0.0000

          k =-0.5833-0.5833 0.7500 (  1046 PWs)   bands (ev):

   -89.9969 -88.1402 -50.3981 -50.3871 -50.3740 -48.5963 -48.5933 -48.5817
    -4.7906  -4.6335   6.9360   7.4090   9.0129   9.1499   9.7959  10.0131
    11.4780  12.4785  12.5540  12.8440  13.1391  13.4738  13.6854  13.7644
    15.2986  15.7649  20.1264  21.1185  25.0026  25.1507

     occupation numbers 
     1.0000   1.0000   1.0000   1.0000   1.0000   1.0000   1.0000   1.0000
     1.0000   1.0000   1.0000   1.0000   1.0000   1.0000   1.0000   1.0000
     1.0000   1.0000   1.0000   1.0000   1.0000   1.0000   1.0000   1.0000
    -0.0000  -0.0000  -0.0000  -0.0000  -0.0000  -0.0000

          k =-0.3333-0.6667 0.6667 (  1048 PWs)   bands (ev):

   -89.9965 -88.1397 -50.3973 -50.3899 -50.3785 -48.5995 -48.5924 -48.5868
    -4.5162  -4.4873   6.7172   7.4762   8.6603   8.9642   9.1420   9.7225
    11.8342  12.4226  12.6207  13.0475  13.2515  13.6227  13.6990  13.7743
    15.3808  15.5063  21.4012  21.5762  24.2100  24.8102

     occupation numbers 
     1.0000   1.0000   1.0000   1.0000   1.0000   1.0000   1.0000   1.0000
     1.0000   1.0000   1.0000   1.0000   1.0000   1.0000   1.0000   1.0000
     1.0000   1.0000   1.0000   1.0000   1.0000   1.0000   1.0000   1.0000
    -0.0000  -0.0000  -0.0000  -0.0000  -0.0000  -0.0000

          k =-0.0833-0.7500 0.5833 (  1040 PWs)   bands (ev):

   -89.9962 -88.1394 -50.3968 -50.3861 -50.3860 -48.5952 -48.5951 -48.5920
    -4.3982  -4.3982   7.4506   7.4934   8.2479   8.2820   9.0006   9.1209
    12.4023  12.5021  12.5646  13.0192  13.3028  13.4862  13.6928  13.7521
    15.2911  15.4365  23.2455  23.4099  23.6098  23.6797

     occupation numbers 
     1.0000   1.0000   1.0000   1.0000   1.0000   1.0000   1.0000   1.0000
     1.0000   1.0000   1.0000   1.0000   1.0000   1.0000   1.0000   1.0000
     1.0000   1.0000   1.0000   1.0000   1.0000   1.0000   1.0000   1.0000
    -0.0000  -0.0000  -0.0000  -0.0000  -0.0000  -0.0000

          k =-0.4167-0.4167 0.5833 (  1041 PWs)   bands (ev):

   -89.9964 -88.1397 -50.3972 -50.3928 -50.3755 -48.6027 -48.5923 -48.5834
    -4.5228  -4.4734   6.3157   7.4858   8.8072   8.8828   9.7151   9.9996
    11.3933  12.4774  12.6827  13.0209  13.0400  13.4358  13.7010  13.8292
    15.7632  15.7772  20.4445  20.9529  24.4329  25.0029

     occupation numbers 
     1.0000   1.0000   1.0000   1.0000   1.0000   1.0000   1.0000   1.0000
     1.0000   1.0000   1.0000   1.0000   1.0000   1.0000   1.0000   1.0000
     1.0000   1.0000   1.0000   1.0000   1.0000   1.0000   1.0000   1.0000
    -0.0000  -0.0000  -0.0000  -0.0000  -0.0000  -0.0000

          k = 0.1667 0.1667 0.1667 (  1062 PWs)   bands (ev):

   -89.9983 -88.1417 -50.4004 -50.3698 -50.3698 -48.5960 -48.5770 -48.5770
    -5.6347  -4.9326   7.1807   9.1571   9.1571   9.5271  10.3840  10.3840
    12.0069  12.0069  12.3625  13.1538  13.1538  13.3538  13.4956  13.4956
    15.4636  15.4636  17.6096  19.5923  25.3196  28.4669

     occupation numbers 
     1.0000   1.0000   1.0000   1.0000   1.0000   1.0000   1.0000   1.0000
     1.0000   1.0000   1.0000   1.0000   1.0000   1.0000   1.0000   1.0000
     1.0000   1.0000   1.0000   1.0000   1.0000   1.0000   1.0000   1.0000
    -0.0000  -0.0000  -0.0000  -0.0000  -0.0000  -0.0000

          k =-1.0833 0.5833 0.5833 (  1051 PWs)   bands (ev):

   -89.9978 -88.1412 -50.3995 -50.3755 -50.3712 -48.5951 -48.5834 -48.5785
    -5.3169  -4.8973   7.4389   8.3112   9.0909   9.3381  10.1544  10.3259
    11.7863  12.2494  12.6883  12.8013  12.8430  13.4100  13.4755  13.6694
    14.7574  15.7263  19.2730  20.4026  25.7688  27.1946

     occupation numbers 
     1.0000   1.0000   1.0000   1.0000   1.0000   1.0000   1.0000   1.0000
     1.0000   1.0000   1.0000   1.0000   1.0000   1.0000   1.0000   1.0000
     1.0000   1.0000   1.0000   1.0000   1.0000   1.0000   1.0000   1.0000
    -0.0000  -0.0000  -0.0000  -0.0000  -0.0000  -0.0000

          k =-0.8333 0.5000 0.5000 (  1032 PWs)   bands (ev):

   -89.9969 -88.1401 -50.3979 -50.3870 -50.3739 -48.5962 -48.5932 -48.5816
    -4.7977  -4.6253   6.9043   7.4730   8.9248   8.9357  10.1770  10.1837
    11.3500  12.4650  12.5819  12.7251  13.0357  13.4478  13.6591  13.8123
    14.9855  15.8383  20.8855  21.1679  24.6834  25.6458

     occupation numbers 
     1.0000   1.0000   1.0000   1.0000   1.0000   1.0000   1.0000   1.0000
     1.0000   1.0000   1.0000   1.0000   1.0000   1.0000   1.0000   1.0000
     1.0000   1.0000   1.0000   1.0000   1.0000   1.0000   1.0000   1.0000
    -0.0000  -0.0000  -0.0000  -0.0000  -0.0000  -0.0000

          k =-0.6667-0.6667 1.0000 (  1053 PWs)   bands (ev):

   -89.9978 -88.1412 -50.3996 -50.3755 -50.3711 -48.5951 -48.5834 -48.5785
    -5.2074  -5.0155   7.6639   8.1500   9.3041   9.4703   9.8405   9.9511
    11.8964  12.1994  12.6831  12.8543  13.0320  13.2788  13.5793  13.7377
    15.0130  15.4602  19.3673  20.1972  26.1933  26.9672

     occupation numbers 
     1.0000   1.0000   1.0000   1.0000   1.0000   1.0000   1.0000   1.0000
     1.0000   1.0000   1.0000   1.0000   1.0000   1.0000   1.0000   1.0000
     1.0000   1.0000   1.0000   1.0000   1.0000   1.0000   1.0000   1.0000
    -0.0000  -0.0000  -0.0000  -0.0000  -0.0000  -0.0000

          k =-0.4167-0.7500 0.9167 (  1048 PWs)   bands (ev):

   -89.9971 -88.1404 -50.3985 -50.3830 -50.3745 -48.5938 -48.5918 -48.5823
    -4.8187  -4.8154   7.3612   7.5159   9.1762   9.3082   9.4876   9.7729
    12.0159  12.1120  12.6939  12.7038  13.1848  13.4829  13.6364  13.8154
    15.0809  15.3356  20.9322  20.9751  25.6404  25.7419

     occupation numbers 
     1.0000   1.0000   1.0000   1.0000   1.0000   1.0000   1.0000   1.0000
     1.0000   1.0000   1.0000   1.0000   1.0000   1.0000   1.0000   1.0000
     1.0000   1.0000   1.0000   1.0000   1.0000   1.0000   1.0000   1.0000
    -0.0000  -0.0000  -0.0000  -0.0000  -0.0000  -0.0000

          k =-0.2500-0.2500-0.2500 (  1050 PWs)   bands (ev):

   -89.9982 -88.1417 -50.4003 -50.3697 -50.3697 -48.5961 -48.5768 -48.5768
    -5.3019  -5.2968   8.2388   8.2915   9.3707   9.3707  10.0343  10.0343
    12.0376  12.0376  12.4132  13.1377  13.1377  13.2712  13.7880  13.7880
    15.2774  15.2774  18.6866  18.8120  26.5694  26.6993

     occupation numbers 
     1.0000   1.0000   1.0000   1.0000   1.0000   1.0000   1.0000   1.0000
     1.0000   1.0000   1.0000   1.0000   1.0000   1.0000   1.0000   1.0000
     1.0000   1.0000   1.0000   1.0000   1.0000   1.0000   1.0000   1.0000
    -0.0000  -0.0000  -0.0000  -0.0000  -0.0000  -0.0000

 ------ SPIN DOWN ----------


          k = 0.0000 0.0000 0.0000 (  1075 PWs)   bands (ev):

   -89.9984 -88.1417 -50.4009 -50.3700 -50.3700 -48.5961 -48.5770 -48.5770
    -5.9449  -4.5250   6.1737   8.8328   8.8328  11.4318  11.4318  11.4392
    11.9260  11.9260  12.0181  12.3696  12.3696  13.3071  13.3071  13.5793
    15.8505  15.8505  16.0248  20.0019  24.5260  28.4942

     occupation numbers 
     1.0000   1.0000   1.0000   1.0000   1.0000   1.0000   1.0000   1.0000
     1.0000   1.0000   1.0000   1.0000   1.0000   1.0000   1.0000   1.0000
     1.0000   1.0000   1.0000   1.0000   1.0000   1.0000   1.0000   1.0000
    -0.0000  -0.0000  -0.0000  -0.0000  -0.0000  -0.0000

          k = 0.2500-0.0833-0.0833 (  1060 PWs)   bands (ev):

   -89.9980 -88.1412 -50.3999 -50.3757 -50.3713 -48.5951 -48.5834 -48.5786
    -5.6614  -4.4806   6.6449   8.6475   8.9079   9.5085  10.5465  10.6299
    11.9403  12.3449  12.3995  12.6718  13.0511  13.4266  13.4718  13.6170
    15.1478  15.6784  17.6441  21.4874  24.1580  26.6890

     occupation numbers 
     1.0000   1.0000   1.0000   1.0000   1.0000   1.0000   1.0000   1.0000
     1.0000   1.0000   1.0000   1.0000   1.0000   1.0000   1.0000   1.0000
     1.0000   1.0000   1.0000   1.0000   1.0000   1.0000   1.0000   1.0000
    -0.0000  -0.0000  -0.0000  -0.0000  -0.0000  -0.0000

          k = 0.5000-0.1667-0.1667 (  1050 PWs)   bands (ev):

   -89.9970 -88.1401 -50.3983 -50.3871 -50.3742 -48.5963 -48.5934 -48.5818
    -5.0154  -4.3985   7.5293   7.6977   8.1348   9.0371   9.4800   9.8843
    11.8723  12.4799  12.7483  12.9709  13.1524  13.2320  13.7773  13.7840
    15.1573  15.3829  20.1961  23.2676  23.7290  25.0120

     occupation numbers 
     1.0000   1.0000   1.0000   1.0000   1.0000   1.0000   1.0000   1.0000
     1.0000   1.0000   1.0000   1.0000   1.0000   1.0000   1.0000   1.0000
     1.0000   1.0000   1.0000   1.0000   1.0000   1.0000   1.0000   1.0000
    -0.0000  -0.0000  -0.0000  -0.0000  -0.0000  -0.0000

          k =-0.7500 0.2500 0.2500 (  1038 PWs)   bands (ev):

   -89.9966 -88.1396 -50.3973 -50.3928 -50.3756 -48.6027 -48.5924 -48.5833
    -4.5110  -4.4962   7.1698   7.2567   8.5172   8.8485   9.0926   9.6086
    11.8584  12.5227  12.8328  12.8338  13.4316  13.5739  13.6882  13.8433
    15.2602  15.2925  21.9124  22.0640  24.1909  24.3330

     occupation numbers 
     1.0000   1.0000   1.0000   1.0000   1.0000   1.0000   1.0000   1.0000
     1.0000   1.0000   1.0000   1.0000   1.0000   1.0000   1.0000   1.0000
     1.0000   1.0000   1.0000   1.0000   1.0000   1.0000   1.0000   1.0000
    -0.0000  -0.0000  -0.0000  -0.0000  -0.0000  -0.0000

          k = 0.1667 0.1667-0.1667 (  1058 PWs)   bands (ev):

   -89.9980 -88.1412 -50.3999 -50.3757 -50.3713 -48.5951 -48.5834 -48.5785
    -5.6346  -4.5163   6.7216   8.6604   9.0272   9.5224  10.3288  10.3308
    12.0501  12.2087  12.3411  13.0102  13.0736  13.3489  13.6424  13.6943
    15.3337  15.4076  17.6100  21.4024  24.2119  26.8622

     occupation numbers 
     1.0000   1.0000   1.0000   1.0000   1.0000   1.0000   1.0000   1.0000
     1.0000   1.0000   1.0000   1.0000   1.0000   1.0000   1.0000   1.0000
     1.0000   1.0000   1.0000   1.0000   1.0000   1.0000   1.0000   1.0000
    -0.0000  -0.0000  -0.0000  -0.0000  -0.0000  -0.0000

          k = 0.4167 0.0833-0.2500 (  1052 PWs)   bands (ev):

   -89.9973 -88.1404 -50.3986 -50.3832 -50.3746 -48.5937 -48.5918 -48.5822
    -5.1565  -4.4565   7.3596   7.9743   8.6209   8.9833   9.5183   9.8535
    12.1136  12.4195  12.5751  12.8068  13.2296  13.3796  13.5984  13.7789
    15.1484  15.4197  19.6100  22.6794  24.2573  25.5757

     occupation numbers 
     1.0000   1.0000   1.0000   1.0000   1.0000   1.0000   1.0000   1.0000
     1.0000   1.0000   1.0000   1.0000   1.0000   1.0000   1.0000   1.0000
     1.0000   1.0000   1.0000   1.0000   1.0000   1.0000   1.0000   1.0000
    -0.0000  -0.0000  -0.0000  -0.0000  -0.0000  -0.0000

          k =-0.8333 0.5000 0.1667 (  1042 PWs)   bands (ev):

   -89.9966 -88.1396 -50.3973 -50.3900 -50.3786 -48.5994 -48.5924 -48.5867
    -4.6116  -4.3982   7.3248   7.4144   8.4047   8.9430   9.1010   9.1769
    12.1656  12.5360  12.6719  13.0110  13.0715  13.4825  13.6915  13.7947
    15.2079  15.4331  21.8064  23.4631  23.4898  25.1066

     occupation numbers 
     1.0000   1.0000   1.0000   1.0000   1.0000   1.0000   1.0000   1.0000
     1.0000   1.0000   1.0000   1.0000   1.0000   1.0000   1.0000   1.0000
     1.0000   1.0000   1.0000   1.0000   1.0000   1.0000   1.0000   1.0000
    -0.0000  -0.0000  -0.0000  -0.0000  -0.0000  -0.0000

          k =-0.5833 0.4167 0.0833 (  1037 PWs)   bands (ev):

   -89.9965 -88.1396 -50.3974 -50.3900 -50.3785 -48.5994 -48.5924 -48.5866
    -4.6370  -4.3743   7.1628   7.8612   8.3887   8.8549   8.9350   9.0923
    12.2296  12.5294  12.7328  12.9811  13.1286  13.3032  13.7088  13.7895
    15.0280  15.7425  21.5666  22.9010  24.6898  24.9678

     occupation numbers 
     1.0000   1.0000   1.0000   1.0000   1.0000   1.0000   1.0000   1.0000
     1.0000   1.0000   1.0000   1.0000   1.0000   1.0000   1.0000   1.0000
     1.0000   1.0000   1.0000   1.0000   1.0000   1.0000   1.0000   1.0000
    -0.0000  -0.0000  -0.0000  -0.0000  -0.0000  -0.0000

          k =-0.3333 0.3333-0.0000 (  1051 PWs)   bands (ev):

   -89.9973 -88.1404 -50.3986 -50.3832 -50.3746 -48.5937 -48.5918 -48.5822
    -5.2073  -4.3985   7.4172   8.1235   8.4016   8.9648   9.4613   9.8395
    12.1854  12.5344  12.5491  12.7886  13.2408  13.2736  13.6597  13.7343
    15.1366  15.5251  19.3669  23.4650  23.4864  25.5751

     occupation numbers 
     1.0000   1.0000   1.0000   1.0000   1.0000   1.0000   1.0000   1.0000
     1.0000   1.0000   1.0000   1.0000   1.0000   1.0000   1.0000   1.0000
     1.0000   1.0000   1.0000   1.0000   1.0000   1.0000   1.0000   1.0000
    -0.0000  -0.0000  -0.0000  -0.0000  -0.0000  -0.0000

          k = 0.3333 0.3333-0.3333 (  1052 PWs)   bands (ev):

   -89.9970 -88.1401 -50.3982 -50.3872 -50.3743 -48.5963 -48.5932 -48.5818
    -4.9323  -4.4878   7.1755   7.4794   8.9598   9.1376   9.3225   9.7617
    11.7590  12.4749  12.5948  13.0715  13.1250  13.4619  13.7431  13.7649
    15.4940  15.5612  19.5908  21.5749  24.8053  25.3214

     occupation numbers 
     1.0000   1.0000   1.0000   1.0000   1.0000   1.0000   1.0000   1.0000
     1.0000   1.0000   1.0000   1.0000   1.0000   1.0000   1.0000   1.0000
     1.0000   1.0000   1.0000   1.0000   1.0000   1.0000   1.0000   1.0000
    -0.0000  -0.0000  -0.0000  -0.0000  -0.0000  -0.0000

          k =-0.9167 0.7500 0.0833 (  1042 PWs)   bands (ev):

   -89.9966 -88.1396 -50.3973 -50.3901 -50.3786 -48.5994 -48.5923 -48.5866
    -4.5805  -4.4245   6.7132   7.6289   8.7695   8.8977   9.0683   9.5024
    11.9599  12.4394  12.6383  13.0221  13.1770  13.5518  13.6890  13.7922
    15.2636  15.7642  21.0411  21.7427  24.4670  24.9168

     occupation numbers 
     1.0000   1.0000   1.0000   1.0000   1.0000   1.0000   1.0000   1.0000
     1.0000   1.0000   1.0000   1.0000   1.0000   1.0000   1.0000   1.0000
     1.0000   1.0000   1.0000   1.0000   1.0000   1.0000   1.0000   1.0000
    -0.0000  -0.0000  -0.0000  -0.0000  -0.0000  -0.0000

          k =-0.6667 0.6667 0.0000 (  1048 PWs)   bands (ev):

   -89.9963 -88.1394 -50.3970 -50.3862 -50.3862 -48.5952 -48.5952 -48.5920
    -4.3983  -4.3982   7.4102   7.5509   8.1304   8.3982   8.9641   9.1411
    12.3967  12.5276  12.5411  13.0274  13.2954  13.4832  13.6892  13.7600
    15.2712  15.4549  23.2300  23.4898  23.4956  23.7384

     occupation numbers 
     1.0000   1.0000   1.0000   1.0000   1.0000   1.0000   1.0000   1.0000
     1.0000   1.0000   1.0000   1.0000   1.0000   1.0000   1.0000   1.0000
     1.0000   1.0000   1.0000   1.0000   1.0000   1.0000   1.0000   1.0000
    -0.0000  -0.0000  -0.0000  -0.0000  -0.0000  -0.0000

          k =-0.5000-0.5000 0.5000 (  1068 PWs)   bands (ev):

   -89.9966 -88.1397 -50.3975 -50.3932 -50.3758 -48.6029 -48.5925 -48.5835
    -4.5245  -4.4682   6.1691   7.4681   8.8373   8.8574  10.1164  10.1206
    11.1319  12.4419  12.6646  12.8784  13.0543  13.4617  13.7035  13.8220
    15.8960  15.9621  20.0050  20.6906  24.5237  25.0261

     occupation numbers 
     1.0000   1.0000   1.0000   1.0000   1.0000   1.0000   1.0000   1.0000
     1.0000   1.0000   1.0000   1.0000   1.0000   1.0000   1.0000   1.0000
     1.0000   1.0000   1.0000   1.0000   1.0000   1.0000   1.0000   1.0000
    -0.0000  -0.0000  -0.0000  -0.0000  -0.0000  -0.0000

          k = 0.0833 0.0833 0.0833 (  1056 PWs)   bands (ev):

   -89.9984 -88.1417 -50.4007 -50.3698 -50.3698 -48.5959 -48.5769 -48.5769
    -5.8639  -4.6389   6.4395   8.9195   8.9195  10.7460  11.0002  11.0002
    11.9525  11.9525  12.2191  12.8013  12.8013  13.2883  13.2883  13.5080
    15.7392  15.7392  16.5241  19.9508  24.6757  28.7823

     occupation numbers 
     1.0000   1.0000   1.0000   1.0000   1.0000   1.0000   1.0000   1.0000
     1.0000   1.0000   1.0000   1.0000   1.0000   1.0000   1.0000   1.0000
     1.0000   1.0000   1.0000   1.0000   1.0000   1.0000   1.0000   1.0000
    -0.0000  -0.0000  -0.0000  -0.0000  -0.0000  -0.0000

          k = 0.3333 0.0000 0.0000 (  1052 PWs)   bands (ev):

   -89.9979 -88.1412 -50.3998 -50.3756 -50.3713 -48.5950 -48.5833 -48.5785
    -5.5484  -4.6257   6.9094   8.7623   8.9333   9.0912  10.6470  10.6570
    11.7722  12.3596  12.5452  12.5801  12.9016  13.3874  13.4525  13.6387
    14.8424  15.8143  18.3396  21.1656  24.6877  26.7692

     occupation numbers 
     1.0000   1.0000   1.0000   1.0000   1.0000   1.0000   1.0000   1.0000
     1.0000   1.0000   1.0000   1.0000   1.0000   1.0000   1.0000   1.0000
     1.0000   1.0000   1.0000   1.0000   1.0000   1.0000   1.0000   1.0000
    -0.0000  -0.0000  -0.0000  -0.0000  -0.0000  -0.0000

          k =-0.9167 0.4167 0.4167 (  1045 PWs)   bands (ev):

   -89.9970 -88.1401 -50.3982 -50.3872 -50.3741 -48.5963 -48.5933 -48.5817
    -4.9369  -4.4812   7.1168   7.6122   8.5390   8.9428   9.9177  10.1092
    11.6084  12.4610  12.7476  12.8876  12.8980  13.3300  13.6746  13.8361
    14.9120  15.6732  20.6330  22.4511  24.1836  25.4858

     occupation numbers 
     1.0000   1.0000   1.0000   1.0000   1.0000   1.0000   1.0000   1.0000
     1.0000   1.0000   1.0000   1.0000   1.0000   1.0000   1.0000   1.0000
     1.0000   1.0000   1.0000   1.0000   1.0000   1.0000   1.0000   1.0000
    -0.0000  -0.0000  -0.0000  -0.0000  -0.0000  -0.0000

          k =-0.6667 0.3333 0.3333 (  1048 PWs)   bands (ev):

   -89.9966 -88.1396 -50.3975 -50.3929 -50.3757 -48.6027 -48.5925 -48.5834
    -4.5173  -4.4862   6.7156   7.4755   8.6626   9.0015   9.0888   9.7553
    11.7244  12.5120  12.7331  12.9614  13.3615  13.4183  13.6932  13.8392
    15.4474  15.4531  21.3927  21.5828  24.2102  24.8135

     occupation numbers 
     1.0000   1.0000   1.0000   1.0000   1.0000   1.0000   1.0000   1.0000
     1.0000   1.0000   1.0000   1.0000   1.0000   1.0000   1.0000   1.0000
     1.0000   1.0000   1.0000   1.0000   1.0000   1.0000   1.0000   1.0000
    -0.0000  -0.0000  -0.0000  -0.0000  -0.0000  -0.0000

          k =-0.4167 0.2500 0.2500 (  1041 PWs)   bands (ev):

   -89.9970 -88.1401 -50.3981 -50.3871 -50.3742 -48.5963 -48.5932 -48.5817
    -5.0139  -4.4010   7.4977   7.6818   8.2855   9.1641   9.2844   9.6895
    11.9406  12.4816  12.6600  12.9691  13.2485  13.3834  13.7288  13.8772
    15.2622  15.4859  19.7089  22.3278  24.4947  25.2966

     occupation numbers 
     1.0000   1.0000   1.0000   1.0000   1.0000   1.0000   1.0000   1.0000
     1.0000   1.0000   1.0000   1.0000   1.0000   1.0000   1.0000   1.0000
     1.0000   1.0000   1.0000   1.0000   1.0000   1.0000   1.0000   1.0000
    -0.0000  -0.0000  -0.0000  -0.0000  -0.0000  -0.0000

          k = 0.2500 0.2500-0.0833 (  1053 PWs)   bands (ev):

   -89.9979 -88.1412 -50.3997 -50.3756 -50.3713 -48.5950 -48.5834 -48.5785
    -5.4728  -4.7189   7.1068   8.7817   9.0418   9.2505   9.9829  10.2325
    12.0118  12.1708  12.4674  13.1069  13.1093  13.1276  13.5921  13.8964
    15.2585  15.2662  18.3244  20.9522  24.8967  27.2523

     occupation numbers 
     1.0000   1.0000   1.0000   1.0000   1.0000   1.0000   1.0000   1.0000
     1.0000   1.0000   1.0000   1.0000   1.0000   1.0000   1.0000   1.0000
     1.0000   1.0000   1.0000   1.0000   1.0000   1.0000   1.0000   1.0000
    -0.0000  -0.0000  -0.0000  -0.0000  -0.0000  -0.0000

          k =-1.0000 0.6667 0.3333 (  1044 PWs)   bands (ev):

   -89.9972 -88.1404 -50.3985 -50.3831 -50.3746 -48.5937 -48.5917 -48.5821
    -5.0154  -4.6117   7.3200   7.6913   9.0620   9.0992   9.4604   9.8877
    11.9924  12.2577  12.6176  12.7996  13.1815  13.4731  13.5877  13.8406
    15.0769  15.3610  20.1967  21.8096  25.0975  25.7907

     occupation numbers 
     1.0000   1.0000   1.0000   1.0000   1.0000   1.0000   1.0000   1.0000
     1.0000   1.0000   1.0000   1.0000   1.0000   1.0000   1.0000   1.0000
     1.0000   1.0000   1.0000   1.0000   1.0000   1.0000   1.0000   1.0000
    -0.0000  -0.0000  -0.0000  -0.0000  -0.0000  -0.0000

          k =-0.7500 0.5833 0.2500 (  1048 PWs)   bands (ev):

   -89.9966 -88.1396 -50.3974 -50.3901 -50.3786 -48.5995 -48.5924 -48.5867
    -4.5566  -4.4494   6.9611   7.3913   8.5357   9.0084   9.1376   9.5195
    11.9800  12.4780  12.5959  13.0416  13.1920  13.5626  13.7336  13.7925
    15.2695  15.4206  21.7098  22.2658  23.8881  24.8522

     occupation numbers 
     1.0000   1.0000   1.0000   1.0000   1.0000   1.0000   1.0000   1.0000
     1.0000   1.0000   1.0000   1.0000   1.0000   1.0000   1.0000   1.0000
     1.0000   1.0000   1.0000   1.0000   1.0000   1.0000   1.0000   1.0000
    -0.0000  -0.0000  -0.0000  -0.0000  -0.0000  -0.0000

          k =-0.5000 0.5000 0.1667 (  1038 PWs)   bands (ev):

   -89.9965 -88.1396 -50.3973 -50.3900 -50.3786 -48.5994 -48.5924 -48.5866
    -4.6253  -4.3836   6.9045   7.8169   8.7584   8.8745   8.9564   9.0779
    12.1713  12.4919  12.6717  13.0347  13.0678  13.3914  13.7064  13.8032
    15.0625  15.9046  21.1668  22.2586  24.6882  24.9879

     occupation numbers 
     1.0000   1.0000   1.0000   1.0000   1.0000   1.0000   1.0000   1.0000
     1.0000   1.0000   1.0000   1.0000   1.0000   1.0000   1.0000   1.0000
     1.0000   1.0000   1.0000   1.0000   1.0000   1.0000   1.0000   1.0000
    -0.0000  -0.0000  -0.0000  -0.0000  -0.0000  -0.0000

          k =-0.5833-0.5833 0.7500 (  1046 PWs)   bands (ev):

   -89.9970 -88.1401 -50.3982 -50.3872 -50.3742 -48.5963 -48.5932 -48.5817
    -4.7907  -4.6335   6.9360   7.4090   9.0128   9.1499   9.7958  10.0131
    11.4780  12.4784  12.5539  12.8440  13.1391  13.4738  13.6854  13.7644
    15.2986  15.7649  20.1264  21.1185  25.0026  25.1508

     occupation numbers 
     1.0000   1.0000   1.0000   1.0000   1.0000   1.0000   1.0000   1.0000
     1.0000   1.0000   1.0000   1.0000   1.0000   1.0000   1.0000   1.0000
     1.0000   1.0000   1.0000   1.0000   1.0000   1.0000   1.0000   1.0000
    -0.0000  -0.0000  -0.0000  -0.0000  -0.0000  -0.0000

          k =-0.3333-0.6667 0.6667 (  1048 PWs)   bands (ev):

   -89.9966 -88.1396 -50.3974 -50.3901 -50.3787 -48.5994 -48.5924 -48.5867
    -4.5162  -4.4874   6.7172   7.4762   8.6603   8.9642   9.1419   9.7225
    11.8342  12.4225  12.6206  13.0475  13.2515  13.6227  13.6990  13.7743
    15.3808  15.5064  21.4012  21.5762  24.2100  24.8102

     occupation numbers 
     1.0000   1.0000   1.0000   1.0000   1.0000   1.0000   1.0000   1.0000
     1.0000   1.0000   1.0000   1.0000   1.0000   1.0000   1.0000   1.0000
     1.0000   1.0000   1.0000   1.0000   1.0000   1.0000   1.0000   1.0000
    -0.0000  -0.0000  -0.0000  -0.0000  -0.0000  -0.0000

          k =-0.0833-0.7500 0.5833 (  1040 PWs)   bands (ev):

   -89.9963 -88.1394 -50.3969 -50.3862 -50.3861 -48.5951 -48.5951 -48.5919
    -4.3983  -4.3983   7.4506   7.4934   8.2478   8.2820   9.0006   9.1209
    12.4022  12.5020  12.5645  13.0191  13.3027  13.4862  13.6928  13.7521
    15.2911  15.4366  23.2455  23.4099  23.6098  23.6797

     occupation numbers 
     1.0000   1.0000   1.0000   1.0000   1.0000   1.0000   1.0000   1.0000
     1.0000   1.0000   1.0000   1.0000   1.0000   1.0000   1.0000   1.0000
     1.0000   1.0000   1.0000   1.0000   1.0000   1.0000   1.0000   1.0000
    -0.0000  -0.0000  -0.0000  -0.0000  -0.0000  -0.0000

          k =-0.4167-0.4167 0.5833 (  1041 PWs)   bands (ev):

   -89.9965 -88.1396 -50.3973 -50.3929 -50.3756 -48.6027 -48.5923 -48.5833
    -4.5229  -4.4734   6.3157   7.4857   8.8071   8.8828   9.7150   9.9995
    11.3932  12.4773  12.6826  13.0208  13.0400  13.4357  13.7010  13.8293
    15.7632  15.7772  20.4446  20.9529  24.4329  25.0029

     occupation numbers 
     1.0000   1.0000   1.0000   1.0000   1.0000   1.0000   1.0000   1.0000
     1.0000   1.0000   1.0000   1.0000   1.0000   1.0000   1.0000   1.0000
     1.0000   1.0000   1.0000   1.0000   1.0000   1.0000   1.0000   1.0000
    -0.0000  -0.0000  -0.0000  -0.0000  -0.0000  -0.0000

          k = 0.1667 0.1667 0.1667 (  1062 PWs)   bands (ev):

   -89.9984 -88.1417 -50.4005 -50.3699 -50.3699 -48.5960 -48.5769 -48.5769
    -5.6347  -4.9326   7.1807   9.1570   9.1570   9.5271  10.3840  10.3840
    12.0068  12.0068  12.3624  13.1538  13.1538  13.3539  13.4956  13.4956
    15.4636  15.4636  17.6096  19.5923  25.3196  28.4670

     occupation numbers 
     1.0000   1.0000   1.0000   1.0000   1.0000   1.0000   1.0000   1.0000
     1.0000   1.0000   1.0000   1.0000   1.0000   1.0000   1.0000   1.0000
     1.0000   1.0000   1.0000   1.0000   1.0000   1.0000   1.0000   1.0000
    -0.0000  -0.0000  -0.0000  -0.0000  -0.0000  -0.0000

          k =-1.0833 0.5833 0.5833 (  1051 PWs)   bands (ev):

   -89.9979 -88.1412 -50.3996 -50.3756 -50.3713 -48.5951 -48.5833 -48.5784
    -5.3170  -4.8974   7.4389   8.3112   9.0908   9.3380  10.1543  10.3258
    11.7862  12.2494  12.6882  12.8013  12.8430  13.4100  13.4755  13.6694
    14.7574  15.7263  19.2730  20.4026  25.7688  27.1946

     occupation numbers 
     1.0000   1.0000   1.0000   1.0000   1.0000   1.0000   1.0000   1.0000
     1.0000   1.0000   1.0000   1.0000   1.0000   1.0000   1.0000   1.0000
     1.0000   1.0000   1.0000   1.0000   1.0000   1.0000   1.0000   1.0000
    -0.0000  -0.0000  -0.0000  -0.0000  -0.0000  -0.0000

          k =-0.8333 0.5000 0.5000 (  1032 PWs)   bands (ev):

   -89.9970 -88.1401 -50.3980 -50.3871 -50.3740 -48.5962 -48.5932 -48.5816
    -4.7978  -4.6254   6.9043   7.4730   8.9247   8.9357  10.1769  10.1836
    11.3500  12.4649  12.5818  12.7251  13.0356  13.4478  13.6591  13.8124
    14.9855  15.8383  20.8855  21.1679  24.6834  25.6458

     occupation numbers 
     1.0000   1.0000   1.0000   1.0000   1.0000   1.0000   1.0000   1.0000
     1.0000   1.0000   1.0000   1.0000   1.0000   1.0000   1.0000   1.0000
     1.0000   1.0000   1.0000   1.0000   1.0000   1.0000   1.0000   1.0000
    -0.0000  -0.0000  -0.0000  -0.0000  -0.0000  -0.0000

          k =-0.6667-0.6667 1.0000 (  1053 PWs)   bands (ev):

   -89.9979 -88.1412 -50.3997 -50.3757 -50.3713 -48.5951 -48.5834 -48.5784
    -5.2074  -5.0156   7.6639   8.1500   9.3040   9.4703   9.8404   9.9510
    11.8963  12.1993  12.6830  12.8542  13.0320  13.2788  13.5793  13.7377
    15.0130  15.4602  19.3673  20.1972  26.1933  26.9672

     occupation numbers 
     1.0000   1.0000   1.0000   1.0000   1.0000   1.0000   1.0000   1.0000
     1.0000   1.0000   1.0000   1.0000   1.0000   1.0000   1.0000   1.0000
     1.0000   1.0000   1.0000   1.0000   1.0000   1.0000   1.0000   1.0000
    -0.0000  -0.0000  -0.0000  -0.0000  -0.0000  -0.0000

          k =-0.4167-0.7500 0.9167 (  1048 PWs)   bands (ev):

   -89.9972 -88.1404 -50.3986 -50.3831 -50.3746 -48.5938 -48.5917 -48.5822
    -4.8188  -4.8155   7.3612   7.5159   9.1761   9.3082   9.4875   9.7729
    12.0158  12.1119  12.6938  12.7038  13.1847  13.4829  13.6364  13.8155
    15.0809  15.3356  20.9322  20.9751  25.6404  25.7419

     occupation numbers 
     1.0000   1.0000   1.0000   1.0000   1.0000   1.0000   1.0000   1.0000
     1.0000   1.0000   1.0000   1.0000   1.0000   1.0000   1.0000   1.0000
     1.0000   1.0000   1.0000   1.0000   1.0000   1.0000   1.0000   1.0000
    -0.0000  -0.0000  -0.0000  -0.0000  -0.0000  -0.0000

          k =-0.2500-0.2500-0.2500 (  1050 PWs)   bands (ev):

   -89.9983 -88.1417 -50.4004 -50.3698 -50.3698 -48.5960 -48.5768 -48.5768
    -5.3019  -5.2968   8.2387   8.2915   9.3706   9.3706  10.0343  10.0343
    12.0375  12.0375  12.4131  13.1378  13.1378  13.2712  13.7879  13.7879
    15.2774  15.2774  18.6865  18.8120  26.5694  26.6993

     occupation numbers 
     1.0000   1.0000   1.0000   1.0000   1.0000   1.0000   1.0000   1.0000
     1.0000   1.0000   1.0000   1.0000   1.0000   1.0000   1.0000   1.0000
     1.0000   1.0000   1.0000   1.0000   1.0000   1.0000   1.0000   1.0000
    -0.0000  -0.0000  -0.0000  -0.0000  -0.0000  -0.0000

     the Fermi energy is    14.3339 ev

!    total energy              =    -751.03785358 Ry
     estimated scf accuracy    <          1.7E-09 Ry
     smearing contrib. (-TS)   =       0.00000019 Ry
     internal energy E=F+TS    =    -751.03785377 Ry

     The total energy is F=E-TS. E is the sum of the following terms:
     one-electron contribution =    -432.48435818 Ry
     hartree contribution      =     245.91217002 Ry
     xc contribution           =     -85.81215024 Ry
     ewald contribution        =    -478.65351537 Ry

     total magnetization       =    -0.00 Bohr mag/cell
     absolute magnetization    =     2.94 Bohr mag/cell

     convergence has been achieved in  16 iterations

     Forces acting on atoms (cartesian axes, Ry/au):

     atom    1 type  1   force =     0.00000513    0.00000513    0.00000513
     atom    2 type  1   force =    -0.00000513   -0.00000513   -0.00000513
     atom    3 type  2   force =    -0.00000000    0.00000000    0.00000000
     atom    4 type  3   force =     0.00000000    0.00000000    0.00000000
     The non-local contrib.  to forces
     atom    1 type  1   force =     0.00000210    0.00000210    0.00000210
     atom    2 type  1   force =    -0.00000210   -0.00000210   -0.00000210
     atom    3 type  2   force =     0.00000000   -0.00000000   -0.00000000
     atom    4 type  3   force =     0.00000000    0.00000000    0.00000000
     The ionic contribution  to forces
     atom    1 type  1   force =    -0.00000000   -0.00000000   -0.00000000
     atom    2 type  1   force =     0.00000000    0.00000000    0.00000000
     atom    3 type  2   force =    -0.00000000   -0.00000000   -0.00000000
     atom    4 type  3   force =     0.00000000    0.00000000    0.00000000
     The local contribution  to forces
     atom    1 type  1   force =    -0.00003755   -0.00003755   -0.00003755
     atom    2 type  1   force =     0.00003755    0.00003755    0.00003755
     atom    3 type  2   force =     0.00000000    0.00000000    0.00000000
     atom    4 type  3   force =     0.00000000    0.00000000    0.00000000
     The core correction contribution to forces
     atom    1 type  1   force =     0.00000001    0.00000001    0.00000001
     atom    2 type  1   force =    -0.00000001   -0.00000001   -0.00000001
     atom    3 type  2   force =     0.00000000    0.00000000    0.00000000
     atom    4 type  3   force =     0.00000000    0.00000000    0.00000000
     The Hubbard contrib.    to forces
     atom    1 type  1   force =     0.00000000    0.00000000    0.00000000
     atom    2 type  1   force =     0.00000000    0.00000000    0.00000000
     atom    3 type  2   force =     0.00000000    0.00000000    0.00000000
     atom    4 type  3   force =     0.00000000    0.00000000    0.00000000
     The SCF correction term to forces
     atom    1 type  1   force =     0.00004057    0.00004057    0.00004057
     atom    2 type  1   force =    -0.00004057   -0.00004057   -0.00004057
     atom    3 type  2   force =     0.00000000    0.00000000   -0.00000000
     atom    4 type  3   force =    -0.00000000    0.00000000   -0.00000000

     Total force =     0.000013     Total SCF correction =     0.000099
     SCF correction compared to forces is large: reduce conv_thr to get better values


     Computing stress (Cartesian axis) and pressure

          total   stress  (Ry/bohr**3)                   (kbar)     P=      -10.22
  -0.00006950  -0.00002389  -0.00002389          -10.22       -3.51       -3.51
  -0.00002389  -0.00006950  -0.00002389           -3.51      -10.22       -3.51
  -0.00002389  -0.00002389  -0.00006950           -3.51       -3.51      -10.22

     kinetic stress (kbar)  48931.31     -2.37     -2.37
                               -2.37  48931.31     -2.37
                               -2.37     -2.37  48931.31

     local   stress (kbar)  -4882.51     10.23     10.23
                               10.23  -4882.51     10.23
                               10.23     10.23  -4882.51

     nonloc. stress (kbar)  18896.57     -5.31     -5.31
                               -5.31  18896.57     -5.31
                               -5.31     -5.31  18896.57

     hartree stress (kbar)  49284.65     -5.97     -5.97
                               -5.97  49284.65     -5.97
                               -5.97     -5.97  49284.65

     exc-cor stress (kbar) -13816.70     -0.11     -0.11
                               -0.11 -13816.70     -0.11
                               -0.11     -0.11 -13816.70

     corecor stress (kbar)  -2493.89      0.03      0.03
                                0.03  -2493.89      0.03
                                0.03      0.03  -2493.89

     ewald   stress (kbar) -95929.66     -0.00      0.00
                               -0.00 -95929.66     -0.00
                                0.00     -0.00 -95929.66

     hubbard stress (kbar)      0.00      0.00      0.00
                                0.00      0.00      0.00
                                0.00      0.00      0.00

     DFT-D   stress (kbar)      0.00      0.00      0.00
                                0.00      0.00      0.00
                                0.00      0.00      0.00

     XDM     stress (kbar)      0.00      0.00      0.00
                                0.00      0.00      0.00
                                0.00      0.00      0.00

     dft-nl  stress (kbar)      0.00      0.00      0.00
                                0.00      0.00      0.00
                                0.00      0.00      0.00

     TS-vdW  stress (kbar)      0.00      0.00      0.00
                                0.00      0.00      0.00
                                0.00      0.00      0.00


                                0.00      0.00      0.00
                                0.00      0.00      0.00


                                0.00      0.00      0.00


     Writing all to output data dir ./nio.save/

     init_run     :     10.25s CPU     10.84s WALL (       1 calls)
     electrons    :    387.06s CPU    399.85s WALL (       1 calls)
     forces       :      3.17s CPU      3.35s WALL (       1 calls)
     stress       :      5.18s CPU      5.66s WALL (       1 calls)

     Called by init_run:
     wfcinit      :      7.15s CPU      7.23s WALL (       1 calls)
     wfcinit:atom :      0.04s CPU      0.05s WALL (      64 calls)
     wfcinit:wfcr :      6.89s CPU      6.94s WALL (      64 calls)
     potinit      :      1.08s CPU      1.19s WALL (       1 calls)
     hinit0       :      1.55s CPU      1.79s WALL (       1 calls)

     Called by electrons:
     c_bands      :    302.27s CPU    307.69s WALL (      16 calls)
     sum_band     :     63.71s CPU     67.42s WALL (      16 calls)
     v_of_rho     :     13.67s CPU     14.50s WALL (      17 calls)
     v_h          :      0.30s CPU      0.32s WALL (      17 calls)
     v_xc         :     14.86s CPU     15.74s WALL (      19 calls)
     newd         :      7.01s CPU     10.03s WALL (      17 calls)
     mix_rho      :      0.96s CPU      0.96s WALL (      16 calls)

     Called by c_bands:
     init_us_2    :      2.01s CPU      2.05s WALL (    2240 calls)
     init_us_2:cp :      2.00s CPU      2.04s WALL (    2240 calls)
     cegterg      :    298.13s CPU    303.46s WALL (    1024 calls)

     Called by sum_band:
     sum_band:wei :      0.09s CPU      0.09s WALL (      16 calls)
     sum_band:loo :     53.91s CPU     54.88s WALL (      16 calls)
     sum_band:buf :      0.13s CPU      0.14s WALL (    1024 calls)
     sum_band:ini :      0.91s CPU      0.92s WALL (    1024 calls)
     sum_band:cal :      4.81s CPU      4.90s WALL (    1024 calls)
     sum_band:bec :      0.11s CPU      0.11s WALL (    1024 calls)
     addusdens    :      9.03s CPU     11.75s WALL (      16 calls)
     addusd:skk   :      0.01s CPU      0.02s WALL (      48 calls)
     addusd:dgemm :      2.87s CPU      5.13s WALL (      96 calls)
     addusd:qvan2 :      5.73s CPU      5.75s WALL (      96 calls)

     Called by *egterg:
     cdiaghg      :      6.00s CPU      6.07s WALL (    3406 calls)
     cegterg:over :     12.27s CPU     12.41s WALL (    2382 calls)
     cegterg:upda :      5.64s CPU      5.73s WALL (    2382 calls)
     cegterg:last :     13.53s CPU     13.70s WALL (    1930 calls)
     h_psi        :    251.57s CPU    256.29s WALL (    3470 calls)
     s_psi        :      9.79s CPU      9.92s WALL (    3470 calls)
     g_psi        :      0.31s CPU      0.31s WALL (    2382 calls)

     Called by h_psi:
     h_psi:calbec :     12.00s CPU     12.24s WALL (    3470 calls)
     vloc_psi     :    229.48s CPU    233.79s WALL (    3470 calls)
     add_vuspsi   :      9.70s CPU      9.88s WALL (    3470 calls)

     General routines
     calbec       :     18.32s CPU     18.67s WALL (    4814 calls)
     fft          :      6.05s CPU      6.14s WALL (     463 calls)
     ffts         :      0.18s CPU      0.19s WALL (      66 calls)
     fftw         :    252.75s CPU    257.82s WALL (  183424 calls)
     interpolate  :      0.67s CPU      0.68s WALL (      34 calls)

     Parallel routines

     PWSCF        :   6m46.59s CPU   7m 0.75s WALL


   This run was terminated on:  15:14: 8   4Feb2022            

=------------------------------------------------------------------------------=
   JOB DONE.
=------------------------------------------------------------------------------=
