
     Program PWSCF v.7.0 starts on  4Feb2022 at 15:18: 7 

     This program is part of the open-source Quantum ESPRESSO suite
     for quantum simulation of materials; please cite
         "P. Giannozzi et al., J. Phys.:Condens. Matter 21 395502 (2009);
         "P. Giannozzi et al., J. Phys.:Condens. Matter 29 465901 (2017);
         "P. Giannozzi et al., J. Chem. Phys. 152 154105 (2020);
          URL http://www.quantum-espresso.org", 
     in publications or presentations arising from this work. More details at
     http://www.quantum-espresso.org/quote

     Parallel version (MPI), running on     1 processors

     MPI processes distributed on     1 nodes
     274 MiB available memory on the printing compute node when the environment starts

     Reading input from 02-nio-nscf.in
     Message from routine read_cards :
     DEPRECATED: no units specified in CELL_PARAMETERS card

     Current dimensions of program PWSCF are:
     Max number of different atomic species (ntypx) = 10
     Max number of k-points (npk) =  40000
     Max angular momentum in pseudopotentials (lmaxx) =  4
     Message from routine volume:
     axis vectors are left-handed

     Atomic positions and unit cell read from directory:
     ./nio.save/
     Atomic positions from file used, from input discarded

     Message from routine volume:
     axis vectors are left-handed
     Message from routine setup:
     using ibrav=0 with symmetry is DISCOURAGED, use correct ibrav instead

     Subspace diagonalization in iterative solution of the eigenvalue problem:
     a serial algorithm will be used


     G-vector sticks info
     --------------------
     sticks:   dense  smooth     PW     G-vecs:    dense   smooth      PW
     Sum        1635     667    227                33087     8443    1731

     Using Slab Decomposition



     bravais-lattice index     =            0
     lattice parameter (alat)  =       7.8802  a.u.
     unit-cell volume          =     244.6666 (a.u.)^3
     number of atoms/cell      =            4
     number of atomic types    =            3
     number of electrons       =        48.00
     number of Kohn-Sham states=           30
     kinetic-energy cutoff     =      40.0000  Ry
     charge density cutoff     =     400.0000  Ry
     Exchange-correlation=  SLA  PW   PBX  PBC
                           (   1   4   3   4   0   0   0)

     celldm(1)=   7.880158  celldm(2)=   0.000000  celldm(3)=   0.000000
     celldm(4)=   0.000000  celldm(5)=   0.000000  celldm(6)=   0.000000

     crystal axes: (cart. coord. in units of alat)
               a(1) = (   0.500000   0.500000   1.000000 )  
               a(2) = (   0.500000   1.000000   0.500000 )  
               a(3) = (   1.000000   0.500000   0.500000 )  

     reciprocal axes: (cart. coord. in units 2 pi/alat)
               b(1) = ( -0.500000 -0.500000  1.500000 )  
               b(2) = ( -0.500000  1.500000 -0.500000 )  
               b(3) = (  1.500000 -0.500000 -0.500000 )  


     PseudoPot. # 1 for O  read from file:
     /home/user/pseudo_dir/o_pbe_v1.2.uspp.F.UPF
     MD5 check sum: 734c27235a0248c51dbae37a1fbe46ec
     Pseudo is Ultrasoft + core correction, Zval =  6.0
     Generated by new atomic code, or converted to UPF format
     Using radial grid of  737 points,  5 beta functions with: 
                l(1) =   0
                l(2) =   0
                l(3) =   1
                l(4) =   1
                l(5) =   2
     Q(r) pseudized with  8 coefficients,  rinner =    0.900   0.900   0.900
                                                       0.900   0.900

     PseudoPot. # 2 for Ni read from file:
     /home/user/pseudo_dir/ni_pbe_v1.4.uspp.F.UPF
     MD5 check sum: 1ee80287db30b12d2bc1f57a5b5d6409
     Pseudo is Ultrasoft + core correction, Zval = 18.0
     Generated by new atomic code, or converted to UPF format
     Using radial grid of  865 points,  6 beta functions with: 
                l(1) =   0
                l(2) =   0
                l(3) =   1
                l(4) =   1
                l(5) =   2
                l(6) =   2
     Q(r) pseudized with 10 coefficients,  rinner =    0.980   0.980   0.980
                                                       0.980   0.980

     PseudoPot. # 3 for Ni read from file:
     /home/user/pseudo_dir/ni_pbe_v1.4.uspp.F.UPF
     MD5 check sum: 1ee80287db30b12d2bc1f57a5b5d6409
     Pseudo is Ultrasoft + core correction, Zval = 18.0
     Generated by new atomic code, or converted to UPF format
     Using radial grid of  865 points,  6 beta functions with: 
                l(1) =   0
                l(2) =   0
                l(3) =   1
                l(4) =   1
                l(5) =   2
                l(6) =   2
     Q(r) pseudized with 10 coefficients,  rinner =    0.980   0.980   0.980
                                                       0.980   0.980

     atomic species   valence    mass     pseudopotential
        O              6.00    15.99940     O ( 1.00)
        Ni1           18.00    58.59340     Ni( 1.00)
        Ni2           18.00    58.59340     Ni( 1.00)

     Starting magnetic structure 
     atomic species   magnetization
        O            0.000
        Ni1          0.500
        Ni2         -0.500

     12 Sym. Ops., with inversion, found


                                    s                        frac. trans.

      isym =  1     identity                                     

 cryst.   s( 1) = (     1          0          0      )
                  (     0          1          0      )
                  (     0          0          1      )

 cart.    s( 1) = (  1.0000000  0.0000000  0.0000000 )
                  (  0.0000000  1.0000000  0.0000000 )
                  (  0.0000000  0.0000000  1.0000000 )


      isym =  2     180 deg rotation - cart. axis [1,-1,0]       

 cryst.   s( 2) = (    -1          0          0      )
                  (     0          0         -1      )
                  (     0         -1          0      )

 cart.    s( 2) = (  0.0000000 -1.0000000  0.0000000 )
                  ( -1.0000000  0.0000000  0.0000000 )
                  (  0.0000000  0.0000000 -1.0000000 )


      isym =  3     180 deg rotation - cart. axis [-1,0,1]       

 cryst.   s( 3) = (     0          0         -1      )
                  (     0         -1          0      )
                  (    -1          0          0      )

 cart.    s( 3) = (  0.0000000  0.0000000 -1.0000000 )
                  (  0.0000000 -1.0000000  0.0000000 )
                  ( -1.0000000  0.0000000  0.0000000 )


      isym =  4     180 deg rotation - cart. axis [0,1,-1]       

 cryst.   s( 4) = (     0         -1          0      )
                  (    -1          0          0      )
                  (     0          0         -1      )

 cart.    s( 4) = ( -1.0000000  0.0000000  0.0000000 )
                  (  0.0000000  0.0000000 -1.0000000 )
                  (  0.0000000 -1.0000000  0.0000000 )


      isym =  5     120 deg rotation - cart. axis [-1,-1,-1]     

 cryst.   s( 5) = (     0          1          0      )
                  (     0          0          1      )
                  (     1          0          0      )

 cart.    s( 5) = (  0.0000000  1.0000000  0.0000000 )
                  (  0.0000000  0.0000000  1.0000000 )
                  (  1.0000000  0.0000000  0.0000000 )


      isym =  6     120 deg rotation - cart. axis [1,1,1]        

 cryst.   s( 6) = (     0          0          1      )
                  (     1          0          0      )
                  (     0          1          0      )

 cart.    s( 6) = (  0.0000000  0.0000000  1.0000000 )
                  (  1.0000000  0.0000000  0.0000000 )
                  (  0.0000000  1.0000000  0.0000000 )


      isym =  7     inversion                                    

 cryst.   s( 7) = (    -1          0          0      )
                  (     0         -1          0      )
                  (     0          0         -1      )

 cart.    s( 7) = ( -1.0000000  0.0000000  0.0000000 )
                  (  0.0000000 -1.0000000  0.0000000 )
                  (  0.0000000  0.0000000 -1.0000000 )


      isym =  8     inv. 180 deg rotation - cart. axis [1,-1,0]  

 cryst.   s( 8) = (     1          0          0      )
                  (     0          0          1      )
                  (     0          1          0      )

 cart.    s( 8) = (  0.0000000  1.0000000  0.0000000 )
                  (  1.0000000  0.0000000  0.0000000 )
                  (  0.0000000  0.0000000  1.0000000 )


      isym =  9     inv. 180 deg rotation - cart. axis [-1,0,1]  

 cryst.   s( 9) = (     0          0          1      )
                  (     0          1          0      )
                  (     1          0          0      )

 cart.    s( 9) = (  0.0000000  0.0000000  1.0000000 )
                  (  0.0000000  1.0000000  0.0000000 )
                  (  1.0000000  0.0000000  0.0000000 )


      isym = 10     inv. 180 deg rotation - cart. axis [0,1,-1]  

 cryst.   s(10) = (     0          1          0      )
                  (     1          0          0      )
                  (     0          0          1      )

 cart.    s(10) = (  1.0000000  0.0000000  0.0000000 )
                  (  0.0000000  0.0000000  1.0000000 )
                  (  0.0000000  1.0000000  0.0000000 )


      isym = 11     inv. 120 deg rotation - cart. axis [-1,-1,-1]

 cryst.   s(11) = (     0         -1          0      )
                  (     0          0         -1      )
                  (    -1          0          0      )

 cart.    s(11) = (  0.0000000 -1.0000000  0.0000000 )
                  (  0.0000000  0.0000000 -1.0000000 )
                  ( -1.0000000  0.0000000  0.0000000 )


      isym = 12     inv. 120 deg rotation - cart. axis [1,1,1]   

 cryst.   s(12) = (     0          0         -1      )
                  (    -1          0          0      )
                  (     0         -1          0      )

 cart.    s(12) = (  0.0000000  0.0000000 -1.0000000 )
                  ( -1.0000000  0.0000000  0.0000000 )
                  (  0.0000000 -1.0000000  0.0000000 )


   Cartesian axes

     site n.     atom                  positions (alat units)
         1           O   tau(   1) = (   0.5000000   0.5000000   0.5000000  )
         2           O   tau(   2) = (   1.5000000   1.5000000   1.5000000  )
         3           Ni1 tau(   3) = (   0.0000000   0.0000000   0.0000000  )
         4           Ni2 tau(   4) = (   1.0000000   1.0000000   1.0000000  )

   Crystallographic axes

     site n.     atom                  positions (cryst. coord.)
         1           O   tau(   1) = (  0.2500000  0.2500000  0.2500000  )
         2           O   tau(   2) = (  0.7500000  0.7500000  0.7500000  )
         3           Ni1 tau(   3) = (  0.0000000  0.0000000  0.0000000  )
         4           Ni2 tau(   4) = (  0.5000000  0.5000000  0.5000000  )

     number of k points=    65 (tetrahedron method)
                       cart. coord. in units 2pi/alat
        k(    1) = (   0.0000000   0.0000000   0.0000000), wk =   0.0019531
        k(    2) = (   0.1875000  -0.0625000  -0.0625000), wk =   0.0117188
        k(    3) = (   0.3750000  -0.1250000  -0.1250000), wk =   0.0117188
        k(    4) = (   0.5625000  -0.1875000  -0.1875000), wk =   0.0117188
        k(    5) = (  -0.7500000   0.2500000   0.2500000), wk =   0.0058594
        k(    6) = (   0.1250000   0.1250000  -0.1250000), wk =   0.0117188
        k(    7) = (   0.3125000   0.0625000  -0.1875000), wk =   0.0234375
        k(    8) = (   0.5000000   0.0000000  -0.2500000), wk =   0.0234375
        k(    9) = (  -0.8125000   0.4375000   0.1875000), wk =   0.0234375
        k(   10) = (  -0.6250000   0.3750000   0.1250000), wk =   0.0234375
        k(   11) = (  -0.4375000   0.3125000   0.0625000), wk =   0.0234375
        k(   12) = (  -0.2500000   0.2500000   0.0000000), wk =   0.0117188
        k(   13) = (   0.2500000   0.2500000  -0.2500000), wk =   0.0117188
        k(   14) = (   0.4375000   0.1875000  -0.3125000), wk =   0.0234375
        k(   15) = (  -0.8750000   0.6250000   0.1250000), wk =   0.0234375
        k(   16) = (  -0.6875000   0.5625000   0.0625000), wk =   0.0234375
        k(   17) = (  -0.5000000   0.5000000   0.0000000), wk =   0.0117188
        k(   18) = (   0.3750000   0.3750000  -0.3750000), wk =   0.0117188
        k(   19) = (  -0.9375000   0.8125000   0.0625000), wk =   0.0234375
        k(   20) = (  -0.7500000   0.7500000   0.0000000), wk =   0.0117188
        k(   21) = (  -0.5000000  -0.5000000   0.5000000), wk =   0.0058594
        k(   22) = (   0.0625000   0.0625000   0.0625000), wk =   0.0039062
        k(   23) = (   0.2500000   0.0000000   0.0000000), wk =   0.0117188
        k(   24) = (   0.4375000  -0.0625000  -0.0625000), wk =   0.0117188
        k(   25) = (  -0.8750000   0.3750000   0.3750000), wk =   0.0117188
        k(   26) = (  -0.6875000   0.3125000   0.3125000), wk =   0.0117188
        k(   27) = (  -0.5000000   0.2500000   0.2500000), wk =   0.0117188
        k(   28) = (  -0.3125000   0.1875000   0.1875000), wk =   0.0117188
        k(   29) = (   0.1875000   0.1875000  -0.0625000), wk =   0.0117188
        k(   30) = (   0.3750000   0.1250000  -0.1250000), wk =   0.0234375
        k(   31) = (  -0.9375000   0.5625000   0.3125000), wk =   0.0234375
        k(   32) = (  -0.7500000   0.5000000   0.2500000), wk =   0.0234375
        k(   33) = (  -0.5625000   0.4375000   0.1875000), wk =   0.0234375
        k(   34) = (  -0.3750000   0.3750000   0.1250000), wk =   0.0234375
        k(   35) = (   0.3125000   0.3125000  -0.1875000), wk =   0.0117188
        k(   36) = (  -1.0000000   0.7500000   0.2500000), wk =   0.0234375
        k(   37) = (  -0.8125000   0.6875000   0.1875000), wk =   0.0234375
        k(   38) = (  -0.6250000   0.6250000   0.1250000), wk =   0.0234375
        k(   39) = (  -0.4375000   0.5625000   0.0625000), wk =   0.0234375
        k(   40) = (  -0.5625000  -0.5625000   0.6875000), wk =   0.0117188
        k(   41) = (  -0.3750000  -0.6250000   0.6250000), wk =   0.0234375
        k(   42) = (  -0.1875000  -0.6875000   0.5625000), wk =   0.0234375
        k(   43) = (   0.0000000  -0.7500000   0.5000000), wk =   0.0117188
        k(   44) = (  -0.4375000  -0.4375000   0.5625000), wk =   0.0117188
        k(   45) = (  -0.2500000  -0.5000000   0.5000000), wk =   0.0234375
        k(   46) = (  -0.3125000  -0.3125000   0.4375000), wk =   0.0117188
        k(   47) = (   0.1250000   0.1250000   0.1250000), wk =   0.0039062
        k(   48) = (   0.3125000   0.0625000   0.0625000), wk =   0.0117188
        k(   49) = (  -1.0000000   0.5000000   0.5000000), wk =   0.0117188
        k(   50) = (  -0.8125000   0.4375000   0.4375000), wk =   0.0117188
        k(   51) = (  -0.6250000   0.3750000   0.3750000), wk =   0.0117188
        k(   52) = (   0.2500000   0.2500000   0.0000000), wk =   0.0117188
        k(   53) = (  -1.0625000   0.6875000   0.4375000), wk =   0.0234375
        k(   54) = (  -0.8750000   0.6250000   0.3750000), wk =   0.0234375
        k(   55) = (  -0.6875000   0.5625000   0.3125000), wk =   0.0234375
        k(   56) = (  -0.6250000  -0.6250000   0.8750000), wk =   0.0117188
        k(   57) = (  -0.4375000  -0.6875000   0.8125000), wk =   0.0234375
        k(   58) = (  -0.2500000  -0.7500000   0.7500000), wk =   0.0117188
        k(   59) = (  -0.5000000  -0.5000000   0.7500000), wk =   0.0117188
        k(   60) = (   0.1875000   0.1875000   0.1875000), wk =   0.0039062
        k(   61) = (  -1.1250000   0.6250000   0.6250000), wk =   0.0117188
        k(   62) = (  -0.9375000   0.5625000   0.5625000), wk =   0.0117188
        k(   63) = (  -0.6875000  -0.6875000   1.0625000), wk =   0.0117188
        k(   64) = (  -0.5000000  -0.7500000   1.0000000), wk =   0.0117188
        k(   65) = (  -0.2500000  -0.2500000  -0.2500000), wk =   0.0019531

                       cryst. coord.
        k(    1) = (   0.0000000   0.0000000   0.0000000), wk =   0.0019531
        k(    2) = (   0.0000000   0.0000000   0.1250000), wk =   0.0117188
        k(    3) = (   0.0000000   0.0000000   0.2500000), wk =   0.0117188
        k(    4) = (   0.0000000   0.0000000   0.3750000), wk =   0.0117188
        k(    5) = (   0.0000000   0.0000000  -0.5000000), wk =   0.0058594
        k(    6) = (   0.0000000   0.1250000   0.1250000), wk =   0.0117188
        k(    7) = (   0.0000000   0.1250000   0.2500000), wk =   0.0234375
        k(    8) = (   0.0000000   0.1250000   0.3750000), wk =   0.0234375
        k(    9) = (   0.0000000   0.1250000  -0.5000000), wk =   0.0234375
        k(   10) = (   0.0000000   0.1250000  -0.3750000), wk =   0.0234375
        k(   11) = (   0.0000000   0.1250000  -0.2500000), wk =   0.0234375
        k(   12) = (   0.0000000   0.1250000  -0.1250000), wk =   0.0117188
        k(   13) = (   0.0000000   0.2500000   0.2500000), wk =   0.0117188
        k(   14) = (   0.0000000   0.2500000   0.3750000), wk =   0.0234375
        k(   15) = (   0.0000000   0.2500000  -0.5000000), wk =   0.0234375
        k(   16) = (   0.0000000   0.2500000  -0.3750000), wk =   0.0234375
        k(   17) = (   0.0000000   0.2500000  -0.2500000), wk =   0.0117188
        k(   18) = (   0.0000000   0.3750000   0.3750000), wk =   0.0117188
        k(   19) = (   0.0000000   0.3750000  -0.5000000), wk =   0.0234375
        k(   20) = (   0.0000000   0.3750000  -0.3750000), wk =   0.0117188
        k(   21) = (   0.0000000  -0.5000000  -0.5000000), wk =   0.0058594
        k(   22) = (   0.1250000   0.1250000   0.1250000), wk =   0.0039062
        k(   23) = (   0.1250000   0.1250000   0.2500000), wk =   0.0117188
        k(   24) = (   0.1250000   0.1250000   0.3750000), wk =   0.0117188
        k(   25) = (   0.1250000   0.1250000  -0.5000000), wk =   0.0117188
        k(   26) = (   0.1250000   0.1250000  -0.3750000), wk =   0.0117188
        k(   27) = (   0.1250000   0.1250000  -0.2500000), wk =   0.0117188
        k(   28) = (   0.1250000   0.1250000  -0.1250000), wk =   0.0117188
        k(   29) = (   0.1250000   0.2500000   0.2500000), wk =   0.0117188
        k(   30) = (   0.1250000   0.2500000   0.3750000), wk =   0.0234375
        k(   31) = (   0.1250000   0.2500000  -0.5000000), wk =   0.0234375
        k(   32) = (   0.1250000   0.2500000  -0.3750000), wk =   0.0234375
        k(   33) = (   0.1250000   0.2500000  -0.2500000), wk =   0.0234375
        k(   34) = (   0.1250000   0.2500000  -0.1250000), wk =   0.0234375
        k(   35) = (   0.1250000   0.3750000   0.3750000), wk =   0.0117188
        k(   36) = (   0.1250000   0.3750000  -0.5000000), wk =   0.0234375
        k(   37) = (   0.1250000   0.3750000  -0.3750000), wk =   0.0234375
        k(   38) = (   0.1250000   0.3750000  -0.2500000), wk =   0.0234375
        k(   39) = (   0.1250000   0.3750000  -0.1250000), wk =   0.0234375
        k(   40) = (   0.1250000  -0.5000000  -0.5000000), wk =   0.0117188
        k(   41) = (   0.1250000  -0.5000000  -0.3750000), wk =   0.0234375
        k(   42) = (   0.1250000  -0.5000000  -0.2500000), wk =   0.0234375
        k(   43) = (   0.1250000  -0.5000000  -0.1250000), wk =   0.0117188
        k(   44) = (   0.1250000  -0.3750000  -0.3750000), wk =   0.0117188
        k(   45) = (   0.1250000  -0.3750000  -0.2500000), wk =   0.0234375
        k(   46) = (   0.1250000  -0.2500000  -0.2500000), wk =   0.0117188
        k(   47) = (   0.2500000   0.2500000   0.2500000), wk =   0.0039062
        k(   48) = (   0.2500000   0.2500000   0.3750000), wk =   0.0117188
        k(   49) = (   0.2500000   0.2500000  -0.5000000), wk =   0.0117188
        k(   50) = (   0.2500000   0.2500000  -0.3750000), wk =   0.0117188
        k(   51) = (   0.2500000   0.2500000  -0.2500000), wk =   0.0117188
        k(   52) = (   0.2500000   0.3750000   0.3750000), wk =   0.0117188
        k(   53) = (   0.2500000   0.3750000  -0.5000000), wk =   0.0234375
        k(   54) = (   0.2500000   0.3750000  -0.3750000), wk =   0.0234375
        k(   55) = (   0.2500000   0.3750000  -0.2500000), wk =   0.0234375
        k(   56) = (   0.2500000  -0.5000000  -0.5000000), wk =   0.0117188
        k(   57) = (   0.2500000  -0.5000000  -0.3750000), wk =   0.0234375
        k(   58) = (   0.2500000  -0.5000000  -0.2500000), wk =   0.0117188
        k(   59) = (   0.2500000  -0.3750000  -0.3750000), wk =   0.0117188
        k(   60) = (   0.3750000   0.3750000   0.3750000), wk =   0.0039062
        k(   61) = (   0.3750000   0.3750000  -0.5000000), wk =   0.0117188
        k(   62) = (   0.3750000   0.3750000  -0.3750000), wk =   0.0117188
        k(   63) = (   0.3750000  -0.5000000  -0.5000000), wk =   0.0117188
        k(   64) = (   0.3750000  -0.5000000  -0.3750000), wk =   0.0117188
        k(   65) = (  -0.5000000  -0.5000000  -0.5000000), wk =   0.0019531

     Dense  grid:    33087 G-vectors     FFT dimensions: (  64,  64,  64)

     Smooth grid:     8443 G-vectors     FFT dimensions: (  40,  40,  40)

     Dynamical RAM for                 wfc:       0.48 MB

     Dynamical RAM for     wfc (w. buffer):       0.48 MB

     Dynamical RAM for           str. fact:       1.51 MB

     Dynamical RAM for           local pot:       0.00 MB

     Dynamical RAM for          nlocal pot:       0.99 MB

     Dynamical RAM for                qrad:       4.82 MB

     Dynamical RAM for          rho,v,vnew:      15.03 MB

     Dynamical RAM for           G-vectors:       1.96 MB

     Dynamical RAM for          h,s,v(r/c):       0.16 MB

     Dynamical RAM for          <psi|beta>:       0.03 MB

     Dynamical RAM for                 psi:       0.96 MB

     Dynamical RAM for                hpsi:       0.96 MB

     Dynamical RAM for                spsi:       0.96 MB

     Dynamical RAM for      wfcinit/wfcrot:       1.11 MB

     Dynamical RAM for           addusdens:      95.42 MB

     Estimated static dynamical RAM per process >      38.80 MB

     Estimated max dynamical RAM per process >     134.22 MB

     Check: negative core charge=   -0.000010
     Generating pointlists ...
     new r_m :   0.2063 (alat units)  1.6253 (a.u.) for type    1
     new r_m :   0.2063 (alat units)  1.6253 (a.u.) for type    2
     new r_m :   0.2063 (alat units)  1.6253 (a.u.) for type    3

     The potential is recalculated from file :
     ./nio.save/charge-density

     Starting wfcs are   34 randomized atomic wfcs

     Band Structure Calculation
     Davidson diagonalization with overlap

     Computing kpt #:     1  of   130
     total cpu time spent up to now is        4.7 secs

     Computing kpt #:     2  of   130
     total cpu time spent up to now is        6.0 secs

     Computing kpt #:     3  of   130
     total cpu time spent up to now is        7.4 secs

     Computing kpt #:     4  of   130
     total cpu time spent up to now is        9.1 secs

     Computing kpt #:     5  of   130
     total cpu time spent up to now is       10.8 secs

     Computing kpt #:     6  of   130
     total cpu time spent up to now is       12.0 secs

     Computing kpt #:     7  of   130
     total cpu time spent up to now is       13.4 secs

     Computing kpt #:     8  of   130
     total cpu time spent up to now is       14.9 secs

     Computing kpt #:     9  of   130
     total cpu time spent up to now is       16.7 secs

     Computing kpt #:    10  of   130
     total cpu time spent up to now is       18.3 secs

     Computing kpt #:    11  of   130
     total cpu time spent up to now is       19.6 secs

     Computing kpt #:    12  of   130
     total cpu time spent up to now is       20.8 secs

     Computing kpt #:    13  of   130
     total cpu time spent up to now is       22.6 secs

     Computing kpt #:    14  of   130
     total cpu time spent up to now is       24.8 secs

     Computing kpt #:    15  of   130
     total cpu time spent up to now is       26.7 secs

     Computing kpt #:    16  of   130
     total cpu time spent up to now is       28.0 secs

     Computing kpt #:    17  of   130
     total cpu time spent up to now is       29.7 secs

     Computing kpt #:    18  of   130
     total cpu time spent up to now is       31.4 secs

     Computing kpt #:    19  of   130
     total cpu time spent up to now is       33.0 secs

     Computing kpt #:    20  of   130
     total cpu time spent up to now is       34.6 secs

     Computing kpt #:    21  of   130
     total cpu time spent up to now is       35.9 secs

     Computing kpt #:    22  of   130
     total cpu time spent up to now is       37.1 secs

     Computing kpt #:    23  of   130
     total cpu time spent up to now is       38.2 secs

     Computing kpt #:    24  of   130
     total cpu time spent up to now is       39.3 secs

     Computing kpt #:    25  of   130
     total cpu time spent up to now is       41.0 secs

     Computing kpt #:    26  of   130
     total cpu time spent up to now is       42.6 secs

     Computing kpt #:    27  of   130
     total cpu time spent up to now is       44.1 secs

     Computing kpt #:    28  of   130
     total cpu time spent up to now is       45.4 secs

     Computing kpt #:    29  of   130
     total cpu time spent up to now is       46.8 secs

     Computing kpt #:    30  of   130
     total cpu time spent up to now is       48.4 secs

     Computing kpt #:    31  of   130
     total cpu time spent up to now is       50.2 secs

     Computing kpt #:    32  of   130
     total cpu time spent up to now is       52.0 secs

     Computing kpt #:    33  of   130
     total cpu time spent up to now is       53.6 secs

     Computing kpt #:    34  of   130
     total cpu time spent up to now is       55.4 secs

     Computing kpt #:    35  of   130
     total cpu time spent up to now is       57.0 secs

     Computing kpt #:    36  of   130
     total cpu time spent up to now is       58.5 secs

     Computing kpt #:    37  of   130
     total cpu time spent up to now is       60.0 secs

     Computing kpt #:    38  of   130
     total cpu time spent up to now is       61.4 secs

     Computing kpt #:    39  of   130
     total cpu time spent up to now is       63.0 secs

     Computing kpt #:    40  of   130
     total cpu time spent up to now is       64.4 secs

     Computing kpt #:    41  of   130
     total cpu time spent up to now is       65.6 secs

     Computing kpt #:    42  of   130
     total cpu time spent up to now is       67.0 secs

     Computing kpt #:    43  of   130
     total cpu time spent up to now is       68.4 secs

     Computing kpt #:    44  of   130
     total cpu time spent up to now is       69.5 secs

     Computing kpt #:    45  of   130
     total cpu time spent up to now is       70.8 secs

     Computing kpt #:    46  of   130
     total cpu time spent up to now is       72.3 secs

     Computing kpt #:    47  of   130
     total cpu time spent up to now is       73.4 secs

     Computing kpt #:    48  of   130
     total cpu time spent up to now is       74.6 secs

     Computing kpt #:    49  of   130
     total cpu time spent up to now is       76.0 secs

     Computing kpt #:    50  of   130
     total cpu time spent up to now is       77.9 secs

     Computing kpt #:    51  of   130
     total cpu time spent up to now is       79.3 secs

     Computing kpt #:    52  of   130
     total cpu time spent up to now is       80.8 secs

     Computing kpt #:    53  of   130
     total cpu time spent up to now is       82.5 secs

     Computing kpt #:    54  of   130
     total cpu time spent up to now is       84.0 secs

     Computing kpt #:    55  of   130
     total cpu time spent up to now is       86.1 secs

     Computing kpt #:    56  of   130
     total cpu time spent up to now is       88.2 secs

     Computing kpt #:    57  of   130
     total cpu time spent up to now is       90.9 secs

     Computing kpt #:    58  of   130
     total cpu time spent up to now is       93.0 secs

     Computing kpt #:    59  of   130
     total cpu time spent up to now is       94.1 secs

     Computing kpt #:    60  of   130
     total cpu time spent up to now is       95.9 secs

     Computing kpt #:    61  of   130
     total cpu time spent up to now is       97.4 secs

     Computing kpt #:    62  of   130
     total cpu time spent up to now is       99.6 secs

     Computing kpt #:    63  of   130
     total cpu time spent up to now is      101.8 secs

     Computing kpt #:    64  of   130
     total cpu time spent up to now is      103.6 secs

     Computing kpt #:    65  of   130
     total cpu time spent up to now is      104.9 secs

     Computing kpt #:    66  of   130
     total cpu time spent up to now is      106.5 secs

     Computing kpt #:    67  of   130
     total cpu time spent up to now is      107.8 secs

     Computing kpt #:    68  of   130
     total cpu time spent up to now is      109.3 secs

     Computing kpt #:    69  of   130
     total cpu time spent up to now is      110.7 secs

     Computing kpt #:    70  of   130
     total cpu time spent up to now is      112.4 secs

     Computing kpt #:    71  of   130
     total cpu time spent up to now is      114.0 secs

     Computing kpt #:    72  of   130
     total cpu time spent up to now is      115.4 secs

     Computing kpt #:    73  of   130
     total cpu time spent up to now is      116.8 secs

     Computing kpt #:    74  of   130
     total cpu time spent up to now is      118.4 secs

     Computing kpt #:    75  of   130
     total cpu time spent up to now is      120.1 secs

     Computing kpt #:    76  of   130
     total cpu time spent up to now is      122.2 secs

     Computing kpt #:    77  of   130
     total cpu time spent up to now is      124.5 secs

     Computing kpt #:    78  of   130
     total cpu time spent up to now is      127.0 secs

     Computing kpt #:    79  of   130
     total cpu time spent up to now is      129.8 secs

     Computing kpt #:    80  of   130
     total cpu time spent up to now is      132.2 secs

     Computing kpt #:    81  of   130
     total cpu time spent up to now is      134.1 secs

     Computing kpt #:    82  of   130
     total cpu time spent up to now is      136.0 secs

     Computing kpt #:    83  of   130
     total cpu time spent up to now is      137.5 secs

     Computing kpt #:    84  of   130
     total cpu time spent up to now is      138.9 secs

     Computing kpt #:    85  of   130
     total cpu time spent up to now is      140.7 secs

     Computing kpt #:    86  of   130
     total cpu time spent up to now is      142.5 secs

     Computing kpt #:    87  of   130
     total cpu time spent up to now is      144.5 secs

     Computing kpt #:    88  of   130
     total cpu time spent up to now is      146.0 secs

     Computing kpt #:    89  of   130
     total cpu time spent up to now is      147.8 secs

     Computing kpt #:    90  of   130
     total cpu time spent up to now is      150.2 secs

     Computing kpt #:    91  of   130
     total cpu time spent up to now is      152.8 secs

     Computing kpt #:    92  of   130
     total cpu time spent up to now is      155.6 secs

     Computing kpt #:    93  of   130
     total cpu time spent up to now is      157.5 secs

     Computing kpt #:    94  of   130
     total cpu time spent up to now is      158.7 secs

     Computing kpt #:    95  of   130
     total cpu time spent up to now is      160.0 secs

     Computing kpt #:    96  of   130
     total cpu time spent up to now is      161.9 secs

     Computing kpt #:    97  of   130
     total cpu time spent up to now is      163.5 secs

     Computing kpt #:    98  of   130
     total cpu time spent up to now is      165.2 secs

     Computing kpt #:    99  of   130
     total cpu time spent up to now is      166.9 secs

     Computing kpt #:   100  of   130
     total cpu time spent up to now is      168.7 secs

     Computing kpt #:   101  of   130
     total cpu time spent up to now is      170.1 secs

     Computing kpt #:   102  of   130
     total cpu time spent up to now is      172.0 secs

     Computing kpt #:   103  of   130
     total cpu time spent up to now is      174.0 secs

     Computing kpt #:   104  of   130
     total cpu time spent up to now is      175.5 secs

     Computing kpt #:   105  of   130
     total cpu time spent up to now is      176.8 secs

     Computing kpt #:   106  of   130
     total cpu time spent up to now is      178.6 secs

     Computing kpt #:   107  of   130
     total cpu time spent up to now is      180.7 secs

     Computing kpt #:   108  of   130
     total cpu time spent up to now is      182.5 secs

     Computing kpt #:   109  of   130
     total cpu time spent up to now is      183.8 secs

     Computing kpt #:   110  of   130
     total cpu time spent up to now is      185.1 secs

     Computing kpt #:   111  of   130
     total cpu time spent up to now is      186.7 secs

     Computing kpt #:   112  of   130
     total cpu time spent up to now is      188.1 secs

     Computing kpt #:   113  of   130
     total cpu time spent up to now is      189.3 secs

     Computing kpt #:   114  of   130
     total cpu time spent up to now is      190.6 secs

     Computing kpt #:   115  of   130
     total cpu time spent up to now is      191.7 secs

     Computing kpt #:   116  of   130
     total cpu time spent up to now is      193.2 secs

     Computing kpt #:   117  of   130
     total cpu time spent up to now is      194.7 secs

     Computing kpt #:   118  of   130
     total cpu time spent up to now is      196.5 secs

     Computing kpt #:   119  of   130
     total cpu time spent up to now is      198.0 secs

     Computing kpt #:   120  of   130
     total cpu time spent up to now is      199.7 secs

     Computing kpt #:   121  of   130
     total cpu time spent up to now is      201.2 secs

     Computing kpt #:   122  of   130
     total cpu time spent up to now is      202.6 secs

     Computing kpt #:   123  of   130
     total cpu time spent up to now is      204.0 secs

     Computing kpt #:   124  of   130
     total cpu time spent up to now is      205.1 secs

     Computing kpt #:   125  of   130
     total cpu time spent up to now is      206.6 secs

     Computing kpt #:   126  of   130
     total cpu time spent up to now is      208.0 secs

     Computing kpt #:   127  of   130
     total cpu time spent up to now is      209.4 secs

     Computing kpt #:   128  of   130
     total cpu time spent up to now is      210.8 secs

     Computing kpt #:   129  of   130
     total cpu time spent up to now is      212.5 secs

     Computing kpt #:   130  of   130
     total cpu time spent up to now is      213.9 secs

     ethr =  2.08E-11,  avg # of iterations = 21.4

     total cpu time spent up to now is      213.9 secs

     End of band structure calculation

 ------ SPIN UP ------------


          k = 0.0000 0.0000 0.0000 (  1075 PWs)   bands (ev):

   -89.9990 -88.1412 -50.4014 -50.3705 -50.3705 -48.5956 -48.5765 -48.5765
    -5.9448  -4.5250   6.1737   8.8328   8.8328  11.4319  11.4319  11.4393
    11.9256  11.9256  12.0179  12.3695  12.3695  13.3074  13.3074  13.5796
    15.8506  15.8506  16.0248  20.0019  24.5260  28.4942

     occupation numbers 
     1.0000   1.0000   1.0000   1.0000   1.0000   1.0000   1.0000   1.0000
     1.0000   1.0000   1.0000   1.0000   1.0000   1.0000   1.0000   1.0000
     1.0000   1.0000   1.0000   1.0000   1.0000   1.0000   1.0000   1.0000
     0.0000   0.0000   0.0000   0.0000   0.0000   0.0000

          k = 0.1875-0.0625-0.0625 (  1058 PWs)   bands (ev):

   -89.9987 -88.1409 -50.4008 -50.3738 -50.3712 -48.5950 -48.5802 -48.5774
    -5.7811  -4.4993   6.4479   8.7334   8.8777  10.0821  10.8327  10.8649
    11.9567  12.2760  12.3067  12.5466  12.9544  13.3964  13.4013  13.5757
    15.3566  15.7480  17.0248  20.9209  24.3082  27.3083

     occupation numbers 
     1.0000   1.0000   1.0000   1.0000   1.0000   1.0000   1.0000   1.0000
     1.0000   1.0000   1.0000   1.0000   1.0000   1.0000   1.0000   1.0000
     1.0000   1.0000   1.0000   1.0000   1.0000   1.0000   1.0000   1.0000
     0.0000   0.0000   0.0000   0.0000   0.0000   0.0000

          k = 0.3750-0.1250-0.1250 (  1053 PWs)   bands (ev):

   -89.9980 -88.1402 -50.3996 -50.3819 -50.3732 -48.5938 -48.5893 -48.5796
    -5.3558  -4.4351   7.1257   8.3573   8.5056   8.9761   9.9816  10.2085
    11.9016  12.4307  12.5680  12.9110  13.0683  13.3661  13.6580  13.6899
    15.0199  15.5232  18.9709  22.7040  23.7931  25.5769

     occupation numbers 
     1.0000   1.0000   1.0000   1.0000   1.0000   1.0000   1.0000   1.0000
     1.0000   1.0000   1.0000   1.0000   1.0000   1.0000   1.0000   1.0000
     1.0000   1.0000   1.0000   1.0000   1.0000   1.0000   1.0000   1.0000
     0.0000   0.0000   0.0000   0.0000   0.0000   0.0000

          k = 0.5625-0.1875-0.1875 (  1045 PWs)   bands (ev):

   -89.9974 -88.1394 -50.3984 -50.3900 -50.3753 -48.5985 -48.5925 -48.5819
    -4.8548  -4.3943   7.4130   7.5698   8.1546   9.0606   9.2659   9.7660
    11.8634  12.4971  12.8072  12.9183  13.2362  13.2776  13.7995  13.8209
    15.2238  15.3304  20.7255  22.9942  23.8991  25.1375

     occupation numbers 
     1.0000   1.0000   1.0000   1.0000   1.0000   1.0000   1.0000   1.0000
     1.0000   1.0000   1.0000   1.0000   1.0000   1.0000   1.0000   1.0000
     1.0000   1.0000   1.0000   1.0000   1.0000   1.0000   1.0000   1.0000
     0.0000   0.0000   0.0000   0.0000   0.0000   0.0000

          k =-0.7500 0.2500 0.2500 (  1038 PWs)   bands (ev):

   -89.9971 -88.1391 -50.3978 -50.3933 -50.3761 -48.6022 -48.5919 -48.5828
    -4.5110  -4.4961   7.1698   7.2567   8.5171   8.8486   9.0925   9.6087
    11.8580  12.5223  12.8332  12.8334  13.4312  13.5736  13.6886  13.8438
    15.2605  15.2929  21.9123  22.0640  24.1909  24.3330

     occupation numbers 
     1.0000   1.0000   1.0000   1.0000   1.0000   1.0000   1.0000   1.0000
     1.0000   1.0000   1.0000   1.0000   1.0000   1.0000   1.0000   1.0000
     1.0000   1.0000   1.0000   1.0000   1.0000   1.0000   1.0000   1.0000
     0.0000   0.0000   0.0000   0.0000   0.0000   0.0000

          k = 0.1250 0.1250-0.1250 (  1060 PWs)   bands (ev):

   -89.9987 -88.1409 -50.4008 -50.3738 -50.3713 -48.5950 -48.5802 -48.5774
    -5.7659  -4.5203   6.4951   8.7221   8.9453  10.1550  10.6440  10.6580
    12.0389  12.1398  12.2649  12.8688  12.9813  13.2928  13.5204  13.5854
    15.4863  15.5697  17.0330  20.9006  24.3295  27.3856

     occupation numbers 
     1.0000   1.0000   1.0000   1.0000   1.0000   1.0000   1.0000   1.0000
     1.0000   1.0000   1.0000   1.0000   1.0000   1.0000   1.0000   1.0000
     1.0000   1.0000   1.0000   1.0000   1.0000   1.0000   1.0000   1.0000
     0.0000   0.0000   0.0000   0.0000   0.0000   0.0000

          k = 0.3125 0.0625-0.1875 (  1055 PWs)   bands (ev):

   -89.9982 -88.1404 -50.3999 -50.3791 -50.3731 -48.5941 -48.5862 -48.5794
    -5.4599  -4.4865   6.9793   8.6084   8.7611   9.0575   9.9736  10.2915
    12.0613  12.3526  12.4808  12.7682  13.1974  13.3076  13.6616  13.7159
    15.1166  15.4643  18.4746  22.1012  24.0998  26.2021

     occupation numbers 
     1.0000   1.0000   1.0000   1.0000   1.0000   1.0000   1.0000   1.0000
     1.0000   1.0000   1.0000   1.0000   1.0000   1.0000   1.0000   1.0000
     1.0000   1.0000   1.0000   1.0000   1.0000   1.0000   1.0000   1.0000
     0.0000   0.0000   0.0000   0.0000   0.0000   0.0000

          k = 0.5000 0.0000-0.2500 (  1047 PWs)   bands (ev):

   -89.9976 -88.1396 -50.3987 -50.3864 -50.3760 -48.5944 -48.5928 -48.5827
    -4.9993  -4.4178   7.4648   7.7146   8.4145   8.9155   9.5178   9.6952
    12.0509  12.5152  12.6749  12.7989  13.0877  13.4046  13.5972  13.8041
    15.1454  15.4366  20.3166  23.2209  24.0279  25.1731

     occupation numbers 
     1.0000   1.0000   1.0000   1.0000   1.0000   1.0000   1.0000   1.0000
     1.0000   1.0000   1.0000   1.0000   1.0000   1.0000   1.0000   1.0000
     1.0000   1.0000   1.0000   1.0000   1.0000   1.0000   1.0000   1.0000
     0.0000   0.0000   0.0000   0.0000   0.0000   0.0000

          k =-0.8125 0.4375 0.1875 (  1042 PWs)   bands (ev):

   -89.9971 -88.1391 -50.3978 -50.3916 -50.3780 -48.6002 -48.5919 -48.5849
    -4.5960  -4.4129   7.2959   7.3275   8.4435   8.9605   9.0610   9.3205
    12.0656  12.5184  12.7694  12.9610  13.1203  13.4791  13.7179  13.8094
    15.2547  15.3723  21.8051  22.9955  23.7253  24.9324

     occupation numbers 
     1.0000   1.0000   1.0000   1.0000   1.0000   1.0000   1.0000   1.0000
     1.0000   1.0000   1.0000   1.0000   1.0000   1.0000   1.0000   1.0000
     1.0000   1.0000   1.0000   1.0000   1.0000   1.0000   1.0000   1.0000
     0.0000   0.0000   0.0000   0.0000   0.0000   0.0000

          k =-0.6250 0.3750 0.1250 (  1040 PWs)   bands (ev):

   -89.9971 -88.1391 -50.3979 -50.3916 -50.3779 -48.6002 -48.5920 -48.5849
    -4.6123  -4.3976   7.1352   7.6522   8.4297   8.8999   8.9696   9.2659
    12.1057  12.5227  12.7700  12.9637  13.1929  13.3587  13.7463  13.7998
    15.1091  15.5938  21.6267  22.7011  24.4278  24.7402

     occupation numbers 
     1.0000   1.0000   1.0000   1.0000   1.0000   1.0000   1.0000   1.0000
     1.0000   1.0000   1.0000   1.0000   1.0000   1.0000   1.0000   1.0000
     1.0000   1.0000   1.0000   1.0000   1.0000   1.0000   1.0000   1.0000
     0.0000   0.0000   0.0000   0.0000   0.0000   0.0000

          k =-0.4375 0.3125 0.0625 (  1045 PWs)   bands (ev):

   -89.9975 -88.1397 -50.3987 -50.3864 -50.3759 -48.5944 -48.5928 -48.5826
    -5.0327  -4.3821   7.6630   7.7657   8.2280   8.9547   9.3465   9.6111
    12.1427  12.4882  12.6791  12.9035  13.1249  13.3283  13.6496  13.7784
    15.0872  15.5925  20.0186  23.2441  24.0788  25.1950

     occupation numbers 
     1.0000   1.0000   1.0000   1.0000   1.0000   1.0000   1.0000   1.0000
     1.0000   1.0000   1.0000   1.0000   1.0000   1.0000   1.0000   1.0000
     1.0000   1.0000   1.0000   1.0000   1.0000   1.0000   1.0000   1.0000
     0.0000   0.0000   0.0000   0.0000   0.0000   0.0000

          k =-0.2500 0.2500 0.0000 (  1053 PWs)   bands (ev):

   -89.9982 -88.1404 -50.3999 -50.3790 -50.3731 -48.5941 -48.5862 -48.5794
    -5.4959  -4.4414   6.9221   8.5472   8.8296   9.1049   9.9069  10.3272
    12.1099  12.4538  12.4574  12.6883  13.1599  13.3121  13.6511  13.7620
    15.2642  15.3866  18.2774  22.2971  23.8559  26.1833

     occupation numbers 
     1.0000   1.0000   1.0000   1.0000   1.0000   1.0000   1.0000   1.0000
     1.0000   1.0000   1.0000   1.0000   1.0000   1.0000   1.0000   1.0000
     1.0000   1.0000   1.0000   1.0000   1.0000   1.0000   1.0000   1.0000
     0.0000   0.0000   0.0000   0.0000   0.0000   0.0000

          k = 0.2500 0.2500-0.2500 (  1044 PWs)   bands (ev):

   -89.9980 -88.1402 -50.3994 -50.3819 -50.3732 -48.5936 -48.5893 -48.5796
    -5.2992  -4.5038   7.2178   8.2601   8.6335   9.2065   9.7394   9.8253
    11.9888  12.3551  12.4803  13.0518  13.1497  13.4510  13.7666  13.9029
    15.2560  15.2832  18.7482  21.9898  24.2578  26.1142

     occupation numbers 
     1.0000   1.0000   1.0000   1.0000   1.0000   1.0000   1.0000   1.0000
     1.0000   1.0000   1.0000   1.0000   1.0000   1.0000   1.0000   1.0000
     1.0000   1.0000   1.0000   1.0000   1.0000   1.0000   1.0000   1.0000
     0.0000   0.0000   0.0000   0.0000   0.0000   0.0000

          k = 0.4375 0.1875-0.3125 (  1035 PWs)   bands (ev):

   -89.9975 -88.1396 -50.3985 -50.3864 -50.3759 -48.5944 -48.5927 -48.5825
    -4.9584  -4.4622   7.4128   7.5164   8.8451   9.1026   9.2381   9.5498
    12.0888  12.3529  12.6200  12.9546  13.1531  13.4938  13.6337  13.8474
    15.1513  15.5938  19.9659  22.1533  24.7020  25.6074

     occupation numbers 
     1.0000   1.0000   1.0000   1.0000   1.0000   1.0000   1.0000   1.0000
     1.0000   1.0000   1.0000   1.0000   1.0000   1.0000   1.0000   1.0000
     1.0000   1.0000   1.0000   1.0000   1.0000   1.0000   1.0000   1.0000
     0.0000   0.0000   0.0000   0.0000   0.0000   0.0000

          k =-0.8750 0.6250 0.1250 (  1040 PWs)   bands (ev):

   -89.9971 -88.1391 -50.3978 -50.3891 -50.3806 -48.5974 -48.5919 -48.5878
    -4.6122  -4.3977   7.1363   7.6555   8.4330   8.8222   9.0692   9.2317
    12.2558  12.4150  12.6054  13.0374  13.1714  13.5488  13.6378  13.7965
    15.1067  15.5919  21.6279  22.7020  24.4259  24.7371

     occupation numbers 
     1.0000   1.0000   1.0000   1.0000   1.0000   1.0000   1.0000   1.0000
     1.0000   1.0000   1.0000   1.0000   1.0000   1.0000   1.0000   1.0000
     1.0000   1.0000   1.0000   1.0000   1.0000   1.0000   1.0000   1.0000
     0.0000   0.0000   0.0000   0.0000   0.0000   0.0000

          k =-0.6875 0.5625 0.0625 (  1041 PWs)   bands (ev):

   -89.9969 -88.1389 -50.3975 -50.3894 -50.3833 -48.5977 -48.5916 -48.5908
    -4.4276  -4.4069   7.3151   7.5694   8.3559   8.5129   8.9406   9.0246
    12.3678  12.5394  12.6115  13.0155  13.2058  13.4187  13.7095  13.7530
    15.1857  15.5549  22.9878  23.1257  23.7826  24.2900

     occupation numbers 
     1.0000   1.0000   1.0000   1.0000   1.0000   1.0000   1.0000   1.0000
     1.0000   1.0000   1.0000   1.0000   1.0000   1.0000   1.0000   1.0000
     1.0000   1.0000   1.0000   1.0000   1.0000   1.0000   1.0000   1.0000
     0.0000   0.0000   0.0000   0.0000   0.0000   0.0000

          k =-0.5000 0.5000 0.0000 (  1040 PWs)   bands (ev):

   -89.9971 -88.1391 -50.3979 -50.3891 -50.3806 -48.5974 -48.5920 -48.5878
    -4.6579  -4.3547   7.2015   8.2557   8.2619   8.6323   8.9022   8.9895
    12.3560  12.5637  12.6569  12.9305  13.0950  13.3300  13.6250  13.7875
    14.9466  15.8905  21.5152  23.0589  25.1300  25.1342

     occupation numbers 
     1.0000   1.0000   1.0000   1.0000   1.0000   1.0000   1.0000   1.0000
     1.0000   1.0000   1.0000   1.0000   1.0000   1.0000   1.0000   1.0000
     1.0000   1.0000   1.0000   1.0000   1.0000   1.0000   1.0000   1.0000
     0.0000   0.0000   0.0000   0.0000   0.0000   0.0000

          k = 0.3750 0.3750-0.3750 (  1041 PWs)   bands (ev):

   -89.9973 -88.1394 -50.3983 -50.3900 -50.3753 -48.5984 -48.5924 -48.5819
    -4.7690  -4.4800   6.7532   7.4968   9.0199   9.0361   9.4064   9.8759
    11.5886  12.5027  12.6316  13.0370  13.0786  13.4545  13.7152  13.7548
    15.6524  15.7207  19.8300  21.2431  24.9046  24.9600

     occupation numbers 
     1.0000   1.0000   1.0000   1.0000   1.0000   1.0000   1.0000   1.0000
     1.0000   1.0000   1.0000   1.0000   1.0000   1.0000   1.0000   1.0000
     1.0000   1.0000   1.0000   1.0000   1.0000   1.0000   1.0000   1.0000
     0.0000   0.0000   0.0000   0.0000   0.0000   0.0000

          k =-0.9375 0.8125 0.0625 (  1038 PWs)   bands (ev):

   -89.9971 -88.1391 -50.3978 -50.3917 -50.3779 -48.6002 -48.5918 -48.5848
    -4.5600  -4.4409   6.4966   7.5682   8.7906   8.9455   9.3217   9.7023
    11.7255  12.4711  12.6478  13.0083  13.1262  13.5318  13.6976  13.7835
    15.4663  15.8413  20.6688  21.3136  24.4584  24.9776

     occupation numbers 
     1.0000   1.0000   1.0000   1.0000   1.0000   1.0000   1.0000   1.0000
     1.0000   1.0000   1.0000   1.0000   1.0000   1.0000   1.0000   1.0000
     1.0000   1.0000   1.0000   1.0000   1.0000   1.0000   1.0000   1.0000
     0.0000   0.0000   0.0000   0.0000   0.0000   0.0000

          k =-0.7500 0.7500 0.0000 (  1042 PWs)   bands (ev):

   -89.9969 -88.1389 -50.3975 -50.3894 -50.3833 -48.5976 -48.5915 -48.5909
    -4.4410  -4.3886   6.9172   7.8474   8.1464   8.5374   8.9835   9.4019
    12.1616  12.5080  12.5751  13.0598  13.3399  13.5654  13.6715  13.8031
    15.2610  15.5278  22.3008  22.3303  23.8595  24.7989

     occupation numbers 
     1.0000   1.0000   1.0000   1.0000   1.0000   1.0000   1.0000   1.0000
     1.0000   1.0000   1.0000   1.0000   1.0000   1.0000   1.0000   1.0000
     1.0000   1.0000   1.0000   1.0000   1.0000   1.0000   1.0000   1.0000
     0.0000   0.0000   0.0000   0.0000   0.0000   0.0000

          k =-0.5000-0.5000 0.5000 (  1068 PWs)   bands (ev):

   -89.9971 -88.1392 -50.3980 -50.3937 -50.3763 -48.6024 -48.5920 -48.5830
    -4.5245  -4.4681   6.1691   7.4681   8.8372   8.8573  10.1164  10.1207
    11.1317  12.4415  12.6643  12.8782  13.0542  13.4618  13.7039  13.8224
    15.8962  15.9623  20.0050  20.6905  24.5237  25.0261

     occupation numbers 
     1.0000   1.0000   1.0000   1.0000   1.0000   1.0000   1.0000   1.0000
     1.0000   1.0000   1.0000   1.0000   1.0000   1.0000   1.0000   1.0000
     1.0000   1.0000   1.0000   1.0000   1.0000   1.0000   1.0000   1.0000
     0.0000   0.0000   0.0000   0.0000   0.0000   0.0000

          k = 0.0625 0.0625 0.0625 (  1054 PWs)   bands (ev):

   -89.9989 -88.1412 -50.4012 -50.3703 -50.3703 -48.5955 -48.5764 -48.5764
    -5.8990  -4.5902   6.3245   8.8821   8.8821  11.0027  11.1536  11.1536
    11.9415  11.9415  12.1648  12.6497  12.6497  13.2956  13.2956  13.5385
    15.7873  15.7873  16.3183  19.9790  24.6047  28.6573

     occupation numbers 
     1.0000   1.0000   1.0000   1.0000   1.0000   1.0000   1.0000   1.0000
     1.0000   1.0000   1.0000   1.0000   1.0000   1.0000   1.0000   1.0000
     1.0000   1.0000   1.0000   1.0000   1.0000   1.0000   1.0000   1.0000
     0.0000   0.0000   0.0000   0.0000   0.0000   0.0000

          k = 0.2500 0.0000 0.0000 (  1055 PWs)   bands (ev):

   -89.9987 -88.1409 -50.4007 -50.3738 -50.3712 -48.5949 -48.5802 -48.5774
    -5.7118  -4.5926   6.6434   8.8422   8.8989   9.6608  10.8543  10.8629
    11.8557  12.2780  12.4597  12.5400  12.8854  13.3214  13.4611  13.5671
    15.1322  15.8248  17.4835  20.7980  24.5373  27.4152

     occupation numbers 
     1.0000   1.0000   1.0000   1.0000   1.0000   1.0000   1.0000   1.0000
     1.0000   1.0000   1.0000   1.0000   1.0000   1.0000   1.0000   1.0000
     1.0000   1.0000   1.0000   1.0000   1.0000   1.0000   1.0000   1.0000
     0.0000   0.0000   0.0000   0.0000   0.0000   0.0000

          k = 0.4375-0.0625-0.0625 (  1052 PWs)   bands (ev):

   -89.9980 -88.1402 -50.3995 -50.3819 -50.3733 -48.5937 -48.5893 -48.5797
    -5.2872  -4.5161   7.1294   8.2267   8.6052   8.9402  10.2572  10.3426
    11.7213  12.4736  12.6050  12.6860  12.9569  13.3696  13.5724  13.7237
    14.7854  15.7153  19.4400  22.2521  24.4581  25.4664

     occupation numbers 
     1.0000   1.0000   1.0000   1.0000   1.0000   1.0000   1.0000   1.0000
     1.0000   1.0000   1.0000   1.0000   1.0000   1.0000   1.0000   1.0000
     1.0000   1.0000   1.0000   1.0000   1.0000   1.0000   1.0000   1.0000
     0.0000   0.0000   0.0000   0.0000   0.0000   0.0000

          k =-0.8750 0.3750 0.3750 (  1045 PWs)   bands (ev):

   -89.9974 -88.1394 -50.3984 -50.3901 -50.3753 -48.5985 -48.5925 -48.5819
    -4.8138  -4.4349   7.1214   7.4652   8.4421   8.9684   9.5842   9.9456
    11.6900  12.4750  12.8045  12.9036  13.1069  13.3023  13.7142  13.8587
    15.0591  15.5459  20.9613  22.7063  23.7905  25.5764

     occupation numbers 
     1.0000   1.0000   1.0000   1.0000   1.0000   1.0000   1.0000   1.0000
     1.0000   1.0000   1.0000   1.0000   1.0000   1.0000   1.0000   1.0000
     1.0000   1.0000   1.0000   1.0000   1.0000   1.0000   1.0000   1.0000
     0.0000   0.0000   0.0000   0.0000   0.0000   0.0000

          k =-0.6875 0.3125 0.3125 (  1046 PWs)   bands (ev):

   -89.9971 -88.1391 -50.3980 -50.3934 -50.3762 -48.6023 -48.5920 -48.5829
    -4.5153  -4.4897   6.8405   7.4446   8.6134   8.9795   9.0346   9.6985
    11.7809  12.5162  12.7527  12.9308  13.4218  13.4445  13.6919  13.8413
    15.3778  15.3832  21.6077  21.7540  24.1643  24.6938

     occupation numbers 
     1.0000   1.0000   1.0000   1.0000   1.0000   1.0000   1.0000   1.0000
     1.0000   1.0000   1.0000   1.0000   1.0000   1.0000   1.0000   1.0000
     1.0000   1.0000   1.0000   1.0000   1.0000   1.0000   1.0000   1.0000
     0.0000   0.0000   0.0000   0.0000   0.0000   0.0000

          k =-0.5000 0.2500 0.2500 (  1034 PWs)   bands (ev):

   -89.9973 -88.1394 -50.3983 -50.3900 -50.3753 -48.5984 -48.5924 -48.5819
    -4.8608  -4.3887   7.2378   7.8490   8.1471   9.1151   9.1381   9.6503
    11.9127  12.5081  12.7270  12.9373  13.3061  13.3256  13.7761  13.8501
    15.2641  15.4794  20.3240  22.3361  24.7942  24.9651

     occupation numbers 
     1.0000   1.0000   1.0000   1.0000   1.0000   1.0000   1.0000   1.0000
     1.0000   1.0000   1.0000   1.0000   1.0000   1.0000   1.0000   1.0000
     1.0000   1.0000   1.0000   1.0000   1.0000   1.0000   1.0000   1.0000
     0.0000   0.0000   0.0000   0.0000   0.0000   0.0000

          k =-0.3125 0.1875 0.1875 (  1051 PWs)   bands (ev):

   -89.9980 -88.1402 -50.3995 -50.3819 -50.3732 -48.5937 -48.5893 -48.5796
    -5.3600  -4.4308   7.1599   8.3953   8.4990   9.0739   9.7803  10.0100
    12.0041  12.3881  12.5195  13.0440  13.0875  13.4430  13.7231  13.8130
    15.2326  15.3208  18.6863  22.5061  23.8145  25.8176

     occupation numbers 
     1.0000   1.0000   1.0000   1.0000   1.0000   1.0000   1.0000   1.0000
     1.0000   1.0000   1.0000   1.0000   1.0000   1.0000   1.0000   1.0000
     1.0000   1.0000   1.0000   1.0000   1.0000   1.0000   1.0000   1.0000
     0.0000   0.0000   0.0000   0.0000   0.0000   0.0000

          k = 0.1875 0.1875-0.0625 (  1054 PWs)   bands (ev):

   -89.9987 -88.1409 -50.4006 -50.3737 -50.3713 -48.5949 -48.5802 -48.5774
    -5.6675  -4.6507   6.7760   8.8164   9.0940   9.6732  10.3239  10.5972
    12.0523  12.0919  12.3991  12.9446  13.0684  13.1558  13.5544  13.7270
    15.3620  15.4725  17.5246  20.7233  24.6345  27.6487

     occupation numbers 
     1.0000   1.0000   1.0000   1.0000   1.0000   1.0000   1.0000   1.0000
     1.0000   1.0000   1.0000   1.0000   1.0000   1.0000   1.0000   1.0000
     1.0000   1.0000   1.0000   1.0000   1.0000   1.0000   1.0000   1.0000
     0.0000   0.0000   0.0000   0.0000   0.0000   0.0000

          k = 0.3750 0.1250-0.1250 (  1052 PWs)   bands (ev):

   -89.9982 -88.1404 -50.3997 -50.3792 -50.3730 -48.5940 -48.5863 -48.5794
    -5.3558  -4.6125   7.1404   8.4295   8.8505   9.1314   9.9577  10.2227
    11.9757  12.2620  12.5088  12.8444  13.1725  13.3167  13.5982  13.7567
    14.9574  15.5023  18.9713  21.6287  24.7319  26.2863

     occupation numbers 
     1.0000   1.0000   1.0000   1.0000   1.0000   1.0000   1.0000   1.0000
     1.0000   1.0000   1.0000   1.0000   1.0000   1.0000   1.0000   1.0000
     1.0000   1.0000   1.0000   1.0000   1.0000   1.0000   1.0000   1.0000
     0.0000   0.0000   0.0000   0.0000   0.0000   0.0000

          k =-0.9375 0.5625 0.3125 (  1046 PWs)   bands (ev):

   -89.9976 -88.1396 -50.3986 -50.3865 -50.3759 -48.5944 -48.5928 -48.5826
    -4.9227  -4.4990   7.2502   7.5968   8.6844   8.9555   9.6035   9.8542
    11.8873  12.4706  12.5864  12.8464  13.0991  13.4597  13.5845  13.8442
    15.0379  15.4734  20.6469  22.4566  24.4231  25.5418

     occupation numbers 
     1.0000   1.0000   1.0000   1.0000   1.0000   1.0000   1.0000   1.0000
     1.0000   1.0000   1.0000   1.0000   1.0000   1.0000   1.0000   1.0000
     1.0000   1.0000   1.0000   1.0000   1.0000   1.0000   1.0000   1.0000
     0.0000   0.0000   0.0000   0.0000   0.0000   0.0000

          k =-0.7500 0.5000 0.2500 (  1052 PWs)   bands (ev):

   -89.9971 -88.1391 -50.3979 -50.3917 -50.3781 -48.6003 -48.5920 -48.5850
    -4.5647  -4.4408   6.9175   7.4099   8.5559   8.9563   9.3392   9.4028
    11.9416  12.5072  12.6672  13.0085  13.1131  13.5230  13.7250  13.8118
    15.2745  15.4632  21.6696  22.3006  23.8545  24.9728

     occupation numbers 
     1.0000   1.0000   1.0000   1.0000   1.0000   1.0000   1.0000   1.0000
     1.0000   1.0000   1.0000   1.0000   1.0000   1.0000   1.0000   1.0000
     1.0000   1.0000   1.0000   1.0000   1.0000   1.0000   1.0000   1.0000
     0.0000   0.0000   0.0000   0.0000   0.0000   0.0000

          k =-0.5625 0.4375 0.1875 (  1039 PWs)   bands (ev):

   -89.9971 -88.1391 -50.3979 -50.3916 -50.3779 -48.6002 -48.5919 -48.5849
    -4.6108  -4.3971   6.8760   7.7407   8.6847   8.9251   8.9524   9.2515
    12.0656  12.5125  12.7139  12.9935  13.1596  13.3547  13.7566  13.7969
    15.1191  15.8167  21.1994  22.1493  24.6037  24.9256

     occupation numbers 
     1.0000   1.0000   1.0000   1.0000   1.0000   1.0000   1.0000   1.0000
     1.0000   1.0000   1.0000   1.0000   1.0000   1.0000   1.0000   1.0000
     1.0000   1.0000   1.0000   1.0000   1.0000   1.0000   1.0000   1.0000
     0.0000   0.0000   0.0000   0.0000   0.0000   0.0000

          k =-0.3750 0.3750 0.1250 (  1041 PWs)   bands (ev):

   -89.9975 -88.1396 -50.3987 -50.3864 -50.3759 -48.5944 -48.5928 -48.5826
    -5.0185  -4.3978   7.5999   7.6710   8.4329   9.0302   9.2697   9.5444
    12.1539  12.4365  12.6362  12.9446  13.2113  13.3436  13.6556  13.8022
    15.0602  15.6871  19.8669  22.7023  24.4271  25.4432

     occupation numbers 
     1.0000   1.0000   1.0000   1.0000   1.0000   1.0000   1.0000   1.0000
     1.0000   1.0000   1.0000   1.0000   1.0000   1.0000   1.0000   1.0000
     1.0000   1.0000   1.0000   1.0000   1.0000   1.0000   1.0000   1.0000
     0.0000   0.0000   0.0000   0.0000   0.0000   0.0000

          k = 0.3125 0.3125-0.1875 (  1049 PWs)   bands (ev):

   -89.9980 -88.1401 -50.3994 -50.3819 -50.3733 -48.5937 -48.5893 -48.5796
    -5.1805  -4.6398   7.3131   7.9359   9.0231   9.2668   9.7127   9.7809
    11.8707  12.3444  12.4721  13.0911  13.1241  13.4032  13.7361  13.8260
    15.1636  15.4018  19.1816  21.4652  24.8869  26.2608

     occupation numbers 
     1.0000   1.0000   1.0000   1.0000   1.0000   1.0000   1.0000   1.0000
     1.0000   1.0000   1.0000   1.0000   1.0000   1.0000   1.0000   1.0000
     1.0000   1.0000   1.0000   1.0000   1.0000   1.0000   1.0000   1.0000
     0.0000   0.0000   0.0000   0.0000   0.0000   0.0000

          k =-1.0000 0.7500 0.2500 (  1044 PWs)   bands (ev):

   -89.9976 -88.1396 -50.3987 -50.3865 -50.3759 -48.5944 -48.5928 -48.5826
    -4.8608  -4.5646   7.2333   7.4234   9.0531   9.2023   9.3370   9.6197
    11.9619  12.2736  12.6278  12.8821  13.1857  13.5537  13.6342  13.8623
    15.2778  15.4041  20.3251  21.6738  24.9626  25.3012

     occupation numbers 
     1.0000   1.0000   1.0000   1.0000   1.0000   1.0000   1.0000   1.0000
     1.0000   1.0000   1.0000   1.0000   1.0000   1.0000   1.0000   1.0000
     1.0000   1.0000   1.0000   1.0000   1.0000   1.0000   1.0000   1.0000
     0.0000   0.0000   0.0000   0.0000   0.0000   0.0000

          k =-0.8125 0.6875 0.1875 (  1044 PWs)   bands (ev):

   -89.9971 -88.1391 -50.3978 -50.3891 -50.3806 -48.5974 -48.5919 -48.5878
    -4.5621  -4.4459   7.1344   7.3907   8.5182   8.7555   9.2075   9.4265
    12.1695  12.2935  12.6145  13.0511  13.3012  13.6544  13.6992  13.7882
    15.2138  15.3725  21.7639  22.3250  24.2250  24.4528

     occupation numbers 
     1.0000   1.0000   1.0000   1.0000   1.0000   1.0000   1.0000   1.0000
     1.0000   1.0000   1.0000   1.0000   1.0000   1.0000   1.0000   1.0000
     1.0000   1.0000   1.0000   1.0000   1.0000   1.0000   1.0000   1.0000
     0.0000   0.0000   0.0000   0.0000   0.0000   0.0000

          k =-0.6250 0.6250 0.1250 (  1041 PWs)   bands (ev):

   -89.9969 -88.1389 -50.3975 -50.3894 -50.3833 -48.5977 -48.5915 -48.5909
    -4.4349  -4.3975   7.1214   7.6521   8.3951   8.4485   9.0137   9.1324
    12.2955  12.5263  12.5846  13.0452  13.2426  13.4791  13.6930  13.7823
    15.1516  15.6153  22.6902  22.7109  23.7989  24.4311

     occupation numbers 
     1.0000   1.0000   1.0000   1.0000   1.0000   1.0000   1.0000   1.0000
     1.0000   1.0000   1.0000   1.0000   1.0000   1.0000   1.0000   1.0000
     1.0000   1.0000   1.0000   1.0000   1.0000   1.0000   1.0000   1.0000
     0.0000   0.0000   0.0000   0.0000   0.0000   0.0000

          k =-0.4375 0.5625 0.0625 (  1041 PWs)   bands (ev):

   -89.9971 -88.1391 -50.3979 -50.3891 -50.3806 -48.5974 -48.5919 -48.5878
    -4.6460  -4.3658   7.1776   7.9755   8.3656   8.7736   8.9456   9.0342
    12.3302  12.5368  12.6135  13.0094  13.0618  13.4129  13.6211  13.7924
    14.9944  15.8037  21.5448  22.9718  24.8365  25.0891

     occupation numbers 
     1.0000   1.0000   1.0000   1.0000   1.0000   1.0000   1.0000   1.0000
     1.0000   1.0000   1.0000   1.0000   1.0000   1.0000   1.0000   1.0000
     1.0000   1.0000   1.0000   1.0000   1.0000   1.0000   1.0000   1.0000
     0.0000   0.0000   0.0000   0.0000   0.0000   0.0000

          k =-0.5625-0.5625 0.6875 (  1040 PWs)   bands (ev):

   -89.9973 -88.1394 -50.3983 -50.3900 -50.3753 -48.5984 -48.5923 -48.5819
    -4.6852  -4.5633   6.6266   7.4169   8.9407   9.0305   9.9005  10.0514
    11.3551  12.4852  12.6021  12.8429  13.1154  13.4886  13.6885  13.7742
    15.5421  15.8208  20.1324  20.9983  24.7452  25.0481

     occupation numbers 
     1.0000   1.0000   1.0000   1.0000   1.0000   1.0000   1.0000   1.0000
     1.0000   1.0000   1.0000   1.0000   1.0000   1.0000   1.0000   1.0000
     1.0000   1.0000   1.0000   1.0000   1.0000   1.0000   1.0000   1.0000
     0.0000   0.0000   0.0000   0.0000   0.0000   0.0000

          k =-0.3750-0.6250 0.6250 (  1045 PWs)   bands (ev):

   -89.9971 -88.1391 -50.3979 -50.3917 -50.3780 -48.6002 -48.5919 -48.5849
    -4.5200  -4.4798   6.4907   7.4952   8.7265   8.9685   9.3682   9.8701
    11.6307  12.4698  12.6307  13.0257  13.1446  13.5600  13.6941  13.7831
    15.5423  15.6748  20.9034  21.2414  24.3279  24.9506

     occupation numbers 
     1.0000   1.0000   1.0000   1.0000   1.0000   1.0000   1.0000   1.0000
     1.0000   1.0000   1.0000   1.0000   1.0000   1.0000   1.0000   1.0000
     1.0000   1.0000   1.0000   1.0000   1.0000   1.0000   1.0000   1.0000
     0.0000   0.0000   0.0000   0.0000   0.0000   0.0000

          k =-0.1875-0.6875 0.5625 (  1043 PWs)   bands (ev):

   -89.9969 -88.1389 -50.3975 -50.3894 -50.3833 -48.5977 -48.5915 -48.5909
    -4.4395  -4.3910   6.9720   7.7639   8.2575   8.4976   8.9979   9.3234
    12.2035  12.5108  12.5786  13.0541  13.3115  13.5394  13.6768  13.7977
    15.2049  15.5800  22.4000  22.4372  23.8434  24.6095

     occupation numbers 
     1.0000   1.0000   1.0000   1.0000   1.0000   1.0000   1.0000   1.0000
     1.0000   1.0000   1.0000   1.0000   1.0000   1.0000   1.0000   1.0000
     1.0000   1.0000   1.0000   1.0000   1.0000   1.0000   1.0000   1.0000
     0.0000   0.0000   0.0000   0.0000   0.0000   0.0000

          k = 0.0000-0.7500 0.5000 (  1038 PWs)   bands (ev):

   -89.9969 -88.1389 -50.3975 -50.3893 -50.3833 -48.5977 -48.5916 -48.5908
    -4.4203  -4.4150   7.4597   7.4904   8.3841   8.4470   8.9130   9.0067
    12.3921  12.5365  12.6394  12.9859  13.2167  13.3885  13.7249  13.7258
    15.2482  15.4803  23.1574  23.2763  23.9866  24.0857

     occupation numbers 
     1.0000   1.0000   1.0000   1.0000   1.0000   1.0000   1.0000   1.0000
     1.0000   1.0000   1.0000   1.0000   1.0000   1.0000   1.0000   1.0000
     1.0000   1.0000   1.0000   1.0000   1.0000   1.0000   1.0000   1.0000
     0.0000   0.0000   0.0000   0.0000   0.0000   0.0000

          k =-0.4375-0.4375 0.5625 (  1039 PWs)   bands (ev):

   -89.9970 -88.1391 -50.3977 -50.3934 -50.3761 -48.6022 -48.5918 -48.5828
    -4.5236  -4.4711   6.2524   7.4791   8.8290   8.8634   9.8682  10.0478
    11.3003  12.4649  12.6754  12.9594  13.0479  13.4458  13.7030  13.8273
    15.8204  15.8520  20.2616  20.8415  24.4721  25.0143

     occupation numbers 
     1.0000   1.0000   1.0000   1.0000   1.0000   1.0000   1.0000   1.0000
     1.0000   1.0000   1.0000   1.0000   1.0000   1.0000   1.0000   1.0000
     1.0000   1.0000   1.0000   1.0000   1.0000   1.0000   1.0000   1.0000
     0.0000   0.0000   0.0000   0.0000   0.0000   0.0000

          k =-0.2500-0.5000 0.5000 (  1035 PWs)   bands (ev):

   -89.9971 -88.1391 -50.3978 -50.3916 -50.3779 -48.6001 -48.5918 -48.5848
    -4.5922  -4.4120   6.6384   7.6633   8.8233   8.9197   9.2350   9.3344
    11.9243  12.4900  12.6697  13.0334  13.0738  13.4576  13.7252  13.7949
    15.2741  15.9192  20.7999  21.6427  24.5368  24.9856

     occupation numbers 
     1.0000   1.0000   1.0000   1.0000   1.0000   1.0000   1.0000   1.0000
     1.0000   1.0000   1.0000   1.0000   1.0000   1.0000   1.0000   1.0000
     1.0000   1.0000   1.0000   1.0000   1.0000   1.0000   1.0000   1.0000
     0.0000   0.0000   0.0000   0.0000   0.0000   0.0000

          k =-0.3125-0.3125 0.4375 (  1043 PWs)   bands (ev):

   -89.9974 -88.1394 -50.3983 -50.3901 -50.3753 -48.5984 -48.5924 -48.5819
    -4.8307  -4.4187   6.9815   7.6473   8.7108   9.1114   9.1171   9.7032
    11.8024  12.5084  12.6726  12.9920  13.2404  13.3955  13.7529  13.7813
    15.4187  15.6892  19.9420  21.7093  24.9011  25.0839

     occupation numbers 
     1.0000   1.0000   1.0000   1.0000   1.0000   1.0000   1.0000   1.0000
     1.0000   1.0000   1.0000   1.0000   1.0000   1.0000   1.0000   1.0000
     1.0000   1.0000   1.0000   1.0000   1.0000   1.0000   1.0000   1.0000
     0.0000   0.0000   0.0000   0.0000   0.0000   0.0000

          k = 0.1250 0.1250 0.1250 (  1056 PWs)   bands (ev):

   -89.9989 -88.1412 -50.4011 -50.3704 -50.3704 -48.5955 -48.5764 -48.5764
    -5.7659  -4.7694   6.7579   9.0230   9.0230  10.1606  10.6829  10.6829
    11.9786  11.9786  12.3027  13.0771  13.0771  13.3068  13.3068  13.4326
    15.6128  15.6128  17.0331  19.8299  24.9165  29.1305

     occupation numbers 
     1.0000   1.0000   1.0000   1.0000   1.0000   1.0000   1.0000   1.0000
     1.0000   1.0000   1.0000   1.0000   1.0000   1.0000   1.0000   1.0000
     1.0000   1.0000   1.0000   1.0000   1.0000   1.0000   1.0000   1.0000
     0.0000   0.0000   0.0000   0.0000   0.0000   0.0000

          k = 0.3125 0.0625 0.0625 (  1046 PWs)   bands (ev):

   -89.9986 -88.1409 -50.4005 -50.3737 -50.3712 -48.5949 -48.5801 -48.5773
    -5.5649  -4.7787   7.0522   8.8994   9.0047   9.2995  10.4969  10.5981
    11.8466  12.1835  12.5717  12.8322  12.8861  13.3161  13.4410  13.6484
    14.9314  15.7739  18.1897  20.4565  25.0764  27.7094

     occupation numbers 
     1.0000   1.0000   1.0000   1.0000   1.0000   1.0000   1.0000   1.0000
     1.0000   1.0000   1.0000   1.0000   1.0000   1.0000   1.0000   1.0000
     1.0000   1.0000   1.0000   1.0000   1.0000   1.0000   1.0000   1.0000
     0.0000   0.0000   0.0000   0.0000   0.0000   0.0000

          k =-1.0000 0.5000 0.5000 (  1052 PWs)   bands (ev):

   -89.9980 -88.1402 -50.3995 -50.3819 -50.3732 -48.5937 -48.5893 -48.5796
    -5.1625  -4.6581   7.1999   7.9657   8.8962   8.9689  10.3383  10.3493
    11.5629  12.4885  12.5755  12.6006  12.8800  13.4157  13.5643  13.7511
    14.6796  15.8117  19.9586  21.5156  25.4491  25.5346

     occupation numbers 
     1.0000   1.0000   1.0000   1.0000   1.0000   1.0000   1.0000   1.0000
     1.0000   1.0000   1.0000   1.0000   1.0000   1.0000   1.0000   1.0000
     1.0000   1.0000   1.0000   1.0000   1.0000   1.0000   1.0000   1.0000
     0.0000   0.0000   0.0000   0.0000   0.0000   0.0000

          k =-0.8125 0.4375 0.4375 (  1048 PWs)   bands (ev):

   -89.9974 -88.1394 -50.3984 -50.3901 -50.3753 -48.5985 -48.5925 -48.5819
    -4.7441  -4.5043   6.8058   7.4345   8.7124   8.9114   9.9573  10.0955
    11.4426  12.4504  12.6716  12.9041  12.9967  13.4139  13.6806  13.8523
    15.0798  15.7533  21.0001  21.7061  24.2307  25.4615

     occupation numbers 
     1.0000   1.0000   1.0000   1.0000   1.0000   1.0000   1.0000   1.0000
     1.0000   1.0000   1.0000   1.0000   1.0000   1.0000   1.0000   1.0000
     1.0000   1.0000   1.0000   1.0000   1.0000   1.0000   1.0000   1.0000
     0.0000   0.0000   0.0000   0.0000   0.0000   0.0000

          k =-0.6250 0.3750 0.3750 (  1045 PWs)   bands (ev):

   -89.9971 -88.1391 -50.3978 -50.3935 -50.3762 -48.6023 -48.5919 -48.5829
    -4.5206  -4.4793   6.4899   7.4943   8.7460   8.9357   9.3845   9.8812
    11.5741  12.4974  12.7031  13.0107  13.1809  13.4201  13.6975  13.8351
    15.6076  15.6175  20.9007  21.2430  24.3282  24.9520

     occupation numbers 
     1.0000   1.0000   1.0000   1.0000   1.0000   1.0000   1.0000   1.0000
     1.0000   1.0000   1.0000   1.0000   1.0000   1.0000   1.0000   1.0000
     1.0000   1.0000   1.0000   1.0000   1.0000   1.0000   1.0000   1.0000
     0.0000   0.0000   0.0000   0.0000   0.0000   0.0000

          k = 0.2500 0.2500 0.0000 (  1045 PWs)   bands (ev):

   -89.9986 -88.1409 -50.4004 -50.3736 -50.3712 -48.5949 -48.5801 -48.5773
    -5.4960  -4.8610   7.2433   8.8618   9.2066   9.2840  10.0305  10.3253
    12.0181  12.0995  12.6037  12.8835  13.1083  13.1512  13.5105  13.8720
    15.2651  15.3346  18.2783  20.3250  25.2967  28.0615

     occupation numbers 
     1.0000   1.0000   1.0000   1.0000   1.0000   1.0000   1.0000   1.0000
     1.0000   1.0000   1.0000   1.0000   1.0000   1.0000   1.0000   1.0000
     1.0000   1.0000   1.0000   1.0000   1.0000   1.0000   1.0000   1.0000
     0.0000   0.0000   0.0000   0.0000   0.0000   0.0000

          k =-1.0625 0.6875 0.4375 (  1051 PWs)   bands (ev):

   -89.9982 -88.1404 -50.3997 -50.3792 -50.3731 -48.5940 -48.5863 -48.5794
    -5.1957  -4.7942   7.3800   8.0714   9.1169   9.3466   9.7951  10.0419
    11.9810  12.1867  12.5478  12.8548  13.0355  13.3772  13.5751  13.7564
    14.9671  15.4554  19.6174  21.0083  25.6608  26.4835

     occupation numbers 
     1.0000   1.0000   1.0000   1.0000   1.0000   1.0000   1.0000   1.0000
     1.0000   1.0000   1.0000   1.0000   1.0000   1.0000   1.0000   1.0000
     1.0000   1.0000   1.0000   1.0000   1.0000   1.0000   1.0000   1.0000
     0.0000   0.0000   0.0000   0.0000   0.0000   0.0000

          k =-0.8750 0.6250 0.3750 (  1044 PWs)   bands (ev):

   -89.9976 -88.1396 -50.3986 -50.3864 -50.3759 -48.5944 -48.5928 -48.5826
    -4.8139  -4.6122   7.1320   7.4794   8.8509   9.1151   9.5758   9.9465
    11.7646  12.3437  12.6209  12.8460  13.1517  13.5133  13.6124  13.8470
    15.0019  15.5213  20.9621  21.6306  24.7276  25.6961

     occupation numbers 
     1.0000   1.0000   1.0000   1.0000   1.0000   1.0000   1.0000   1.0000
     1.0000   1.0000   1.0000   1.0000   1.0000   1.0000   1.0000   1.0000
     1.0000   1.0000   1.0000   1.0000   1.0000   1.0000   1.0000   1.0000
     0.0000   0.0000   0.0000   0.0000   0.0000   0.0000

          k =-0.6875 0.5625 0.3125 (  1044 PWs)   bands (ev):

   -89.9971 -88.1391 -50.3978 -50.3917 -50.3780 -48.6002 -48.5919 -48.5849
    -4.5238  -4.4779   6.6340   7.4494   8.6533   8.9659   9.3842   9.7126
    11.7486  12.4879  12.6201  13.0416  13.1269  13.5454  13.7170  13.7984
    15.3681  15.6137  21.4056  21.4823  24.1278  24.9406

     occupation numbers 
     1.0000   1.0000   1.0000   1.0000   1.0000   1.0000   1.0000   1.0000
     1.0000   1.0000   1.0000   1.0000   1.0000   1.0000   1.0000   1.0000
     1.0000   1.0000   1.0000   1.0000   1.0000   1.0000   1.0000   1.0000
     0.0000   0.0000   0.0000   0.0000   0.0000   0.0000

          k =-0.6250-0.6250 0.8750 (  1045 PWs)   bands (ev):

   -89.9980 -88.1401 -50.3994 -50.3819 -50.3732 -48.5937 -48.5893 -48.5796
    -5.0186  -4.8139   7.4423   7.6513   9.1758   9.4009   9.6833   9.9517
    11.7168  12.3625  12.5012  12.9218  13.1165  13.3718  13.7019  13.7035
    14.9642  15.6212  19.8677  20.9633  25.6887  25.9504

     occupation numbers 
     1.0000   1.0000   1.0000   1.0000   1.0000   1.0000   1.0000   1.0000
     1.0000   1.0000   1.0000   1.0000   1.0000   1.0000   1.0000   1.0000
     1.0000   1.0000   1.0000   1.0000   1.0000   1.0000   1.0000   1.0000
     0.0000   0.0000   0.0000   0.0000   0.0000   0.0000

          k =-0.4375-0.6875 0.8125 (  1043 PWs)   bands (ev):

   -89.9976 -88.1396 -50.3986 -50.3865 -50.3760 -48.5944 -48.5928 -48.5826
    -4.7395  -4.6881   7.1290   7.4131   8.9568   9.2411   9.5148   9.8039
    11.8122  12.2660  12.6412  12.8285  13.2068  13.5514  13.6412  13.8380
    15.1278  15.4710  20.8952  21.2882  24.9987  25.2830

     occupation numbers 
     1.0000   1.0000   1.0000   1.0000   1.0000   1.0000   1.0000   1.0000
     1.0000   1.0000   1.0000   1.0000   1.0000   1.0000   1.0000   1.0000
     1.0000   1.0000   1.0000   1.0000   1.0000   1.0000   1.0000   1.0000
     0.0000   0.0000   0.0000   0.0000   0.0000   0.0000

          k =-0.2500-0.7500 0.7500 (  1038 PWs)   bands (ev):

   -89.9971 -88.1391 -50.3978 -50.3891 -50.3805 -48.5973 -48.5919 -48.5877
    -4.5067  -4.5005   7.2051   7.2232   8.5799   8.6980   9.2633   9.5024
    12.1319  12.2447  12.6191  13.0619  13.3469  13.7153  13.7309  13.7718
    15.2644  15.2706  21.9359  22.0434  24.2037  24.3144

     occupation numbers 
     1.0000   1.0000   1.0000   1.0000   1.0000   1.0000   1.0000   1.0000
     1.0000   1.0000   1.0000   1.0000   1.0000   1.0000   1.0000   1.0000
     1.0000   1.0000   1.0000   1.0000   1.0000   1.0000   1.0000   1.0000
     0.0000   0.0000   0.0000   0.0000   0.0000   0.0000

          k =-0.5000-0.5000 0.7500 (  1043 PWs)   bands (ev):

   -89.9973 -88.1394 -50.3983 -50.3901 -50.3752 -48.5984 -48.5924 -48.5818
    -4.6562  -4.5921   6.6394   7.4032   8.9022   8.9178  10.1406  10.1458
    11.2596  12.4528  12.6045  12.7950  13.0776  13.4814  13.6779  13.8116
    15.2763  15.8581  20.8006  20.9564  24.5334  25.2077

     occupation numbers 
     1.0000   1.0000   1.0000   1.0000   1.0000   1.0000   1.0000   1.0000
     1.0000   1.0000   1.0000   1.0000   1.0000   1.0000   1.0000   1.0000
     1.0000   1.0000   1.0000   1.0000   1.0000   1.0000   1.0000   1.0000
     0.0000   0.0000   0.0000   0.0000   0.0000   0.0000

          k = 0.1875 0.1875 0.1875 (  1053 PWs)   bands (ev):

   -89.9989 -88.1412 -50.4009 -50.3704 -50.3704 -48.5955 -48.5764 -48.5764
    -5.5585  -5.0219   7.4256   9.2054   9.2293   9.2293  10.2525  10.2525
    12.0191  12.0191  12.3838  13.1515  13.1515  13.3208  13.6096  13.6096
    15.3930  15.3930  17.9042  19.4254  25.5867  27.9748

     occupation numbers 
     1.0000   1.0000   1.0000   1.0000   1.0000   1.0000   1.0000   1.0000
     1.0000   1.0000   1.0000   1.0000   1.0000   1.0000   1.0000   1.0000
     1.0000   1.0000   1.0000   1.0000   1.0000   1.0000   1.0000   1.0000
     0.0000   0.0000   0.0000   0.0000   0.0000   0.0000

          k =-1.1250 0.6250 0.6250 (  1053 PWs)   bands (ev):

   -89.9987 -88.1409 -50.4005 -50.3737 -50.3712 -48.5950 -48.5802 -48.5773
    -5.3559  -5.0187   7.6157   8.4346   9.1761   9.4999   9.9761  10.2464
    11.8969  12.1567  12.6085  12.9244  13.0110  13.3693  13.4895  13.6638
    14.9153  15.6069  18.9707  19.8683  25.9464  27.5546

     occupation numbers 
     1.0000   1.0000   1.0000   1.0000   1.0000   1.0000   1.0000   1.0000
     1.0000   1.0000   1.0000   1.0000   1.0000   1.0000   1.0000   1.0000
     1.0000   1.0000   1.0000   1.0000   1.0000   1.0000   1.0000   1.0000
     0.0000   0.0000   0.0000   0.0000   0.0000   0.0000

          k =-0.9375 0.5625 0.5625 (  1047 PWs)   bands (ev):

   -89.9980 -88.1402 -50.3994 -50.3819 -50.3732 -48.5937 -48.5893 -48.5795
    -4.9973  -4.8354   7.3489   7.7160   9.0548   9.2222  10.0764  10.1817
    11.5825  12.4101  12.5509  12.7141  12.9708  13.4126  13.6119  13.7242
    14.7674  15.7779  20.4671  20.6824  25.6876  26.6306

     occupation numbers 
     1.0000   1.0000   1.0000   1.0000   1.0000   1.0000   1.0000   1.0000
     1.0000   1.0000   1.0000   1.0000   1.0000   1.0000   1.0000   1.0000
     1.0000   1.0000   1.0000   1.0000   1.0000   1.0000   1.0000   1.0000
     0.0000   0.0000   0.0000   0.0000   0.0000   0.0000

          k =-0.6875-0.6875 1.0625 (  1054 PWs)   bands (ev):

   -89.9986 -88.1409 -50.4006 -50.3737 -50.3712 -48.5951 -48.5802 -48.5773
    -5.2703  -5.1099   7.8169   8.2812   9.3398   9.4613   9.9306   9.9750
    11.9601  12.1299  12.6380  12.9182  13.0770  13.2711  13.5415  13.7567
    15.1109  15.3882  19.1025  19.7163  26.3029  27.0384

     occupation numbers 
     1.0000   1.0000   1.0000   1.0000   1.0000   1.0000   1.0000   1.0000
     1.0000   1.0000   1.0000   1.0000   1.0000   1.0000   1.0000   1.0000
     1.0000   1.0000   1.0000   1.0000   1.0000   1.0000   1.0000   1.0000
     0.0000   0.0000   0.0000   0.0000   0.0000   0.0000

          k =-0.5000-0.7500 1.0000 (  1056 PWs)   bands (ev):

   -89.9982 -88.1404 -50.3998 -50.3792 -50.3731 -48.5941 -48.5863 -48.5794
    -4.9995  -4.9993   7.6034   7.8042   9.2581   9.6507   9.6791   9.7499
    12.0287  12.1373  12.5774  12.7972  13.0120  13.4044  13.5877  13.7109
    15.0403  15.3945  20.3011  20.3332  26.6489  26.6958

     occupation numbers 
     1.0000   1.0000   1.0000   1.0000   1.0000   1.0000   1.0000   1.0000
     1.0000   1.0000   1.0000   1.0000   1.0000   1.0000   1.0000   1.0000
     1.0000   1.0000   1.0000   1.0000   1.0000   1.0000   1.0000   1.0000
     0.0000   0.0000   0.0000   0.0000   0.0000   0.0000

          k =-0.2500-0.2500-0.2500 (  1050 PWs)   bands (ev):

   -89.9989 -88.1412 -50.4009 -50.3703 -50.3703 -48.5956 -48.5763 -48.5763
    -5.3019  -5.2968   8.2386   8.2916   9.3704   9.3704  10.0344  10.0344
    12.0370  12.0370  12.4128  13.1382  13.1382  13.2715  13.7877  13.7877
    15.2777  15.2777  18.6865  18.8121  26.5694  26.6993

     occupation numbers 
     1.0000   1.0000   1.0000   1.0000   1.0000   1.0000   1.0000   1.0000
     1.0000   1.0000   1.0000   1.0000   1.0000   1.0000   1.0000   1.0000
     1.0000   1.0000   1.0000   1.0000   1.0000   1.0000   1.0000   1.0000
     0.0000   0.0000   0.0000   0.0000   0.0000   0.0000

 ------ SPIN DOWN ----------


          k = 0.0000 0.0000 0.0000 (  1075 PWs)   bands (ev):

   -89.9978 -88.1424 -50.4003 -50.3694 -50.3694 -48.5967 -48.5776 -48.5776
    -5.9448  -4.5250   6.1737   8.8329   8.8329  11.4319  11.4319  11.4393
    11.9264  11.9264  12.0184  12.3697  12.3697  13.3067  13.3067  13.5790
    15.8502  15.8502  16.0248  20.0019  24.5260  28.4942

     occupation numbers 
     1.0000   1.0000   1.0000   1.0000   1.0000   1.0000   1.0000   1.0000
     1.0000   1.0000   1.0000   1.0000   1.0000   1.0000   1.0000   1.0000
     1.0000   1.0000   1.0000   1.0000   1.0000   1.0000   1.0000   1.0000
     0.0000   0.0000   0.0000   0.0000   0.0000   0.0000

          k = 0.1875-0.0625-0.0625 (  1058 PWs)   bands (ev):

   -89.9975 -88.1420 -50.3997 -50.3727 -50.3701 -48.5961 -48.5813 -48.5785
    -5.7811  -4.4993   6.4479   8.7336   8.8779  10.0821  10.8327  10.8650
    11.9574  12.2766  12.3074  12.5469  12.9544  13.3957  13.4009  13.5751
    15.3561  15.7475  17.0248  20.9209  24.3081  27.3083

     occupation numbers 
     1.0000   1.0000   1.0000   1.0000   1.0000   1.0000   1.0000   1.0000
     1.0000   1.0000   1.0000   1.0000   1.0000   1.0000   1.0000   1.0000
     1.0000   1.0000   1.0000   1.0000   1.0000   1.0000   1.0000   1.0000
     0.0000   0.0000   0.0000   0.0000   0.0000   0.0000

          k = 0.3750-0.1250-0.1250 (  1053 PWs)   bands (ev):

   -89.9969 -88.1413 -50.3985 -50.3808 -50.3721 -48.5948 -48.5904 -48.5808
    -5.3558  -4.4352   7.1257   8.3574   8.5056   8.9763   9.9816  10.2085
    11.9023  12.4314  12.5687  12.9112  13.0680  13.3663  13.6574  13.6892
    15.0191  15.5226  18.9708  22.7040  23.7931  25.5769

     occupation numbers 
     1.0000   1.0000   1.0000   1.0000   1.0000   1.0000   1.0000   1.0000
     1.0000   1.0000   1.0000   1.0000   1.0000   1.0000   1.0000   1.0000
     1.0000   1.0000   1.0000   1.0000   1.0000   1.0000   1.0000   1.0000
     0.0000   0.0000   0.0000   0.0000   0.0000   0.0000

          k = 0.5625-0.1875-0.1875 (  1045 PWs)   bands (ev):

   -89.9962 -88.1406 -50.3973 -50.3889 -50.3742 -48.5996 -48.5936 -48.5830
    -4.8549  -4.3944   7.4131   7.5698   8.1546   9.0609   9.2659   9.7659
    11.8642  12.4981  12.8078  12.9180  13.2367  13.2776  13.7990  13.8200
    15.2231  15.3297  20.7255  22.9942  23.8991  25.1375

     occupation numbers 
     1.0000   1.0000   1.0000   1.0000   1.0000   1.0000   1.0000   1.0000
[...]
     1.0000   1.0000   1.0000   1.0000   1.0000   1.0000   1.0000   1.0000
     1.0000   1.0000   1.0000   1.0000   1.0000   1.0000   1.0000   1.0000
     0.0000   0.0000   0.0000   0.0000   0.0000   0.0000

          k =-0.5625-0.5625 0.6875 (  1040 PWs)   bands (ev):

   -89.9962 -88.1405 -50.3972 -50.3889 -50.3741 -48.5995 -48.5934 -48.5830
    -4.6853  -4.5633   6.6266   7.4169   8.9409   9.0306   9.9005  10.0514
    11.3555  12.4861  12.6029  12.8433  13.1156  13.4886  13.6876  13.7734
    15.5414  15.8203  20.1325  20.9983  24.7452  25.0481

     occupation numbers 
     1.0000   1.0000   1.0000   1.0000   1.0000   1.0000   1.0000   1.0000
     1.0000   1.0000   1.0000   1.0000   1.0000   1.0000   1.0000   1.0000
     1.0000   1.0000   1.0000   1.0000   1.0000   1.0000   1.0000   1.0000
     0.0000   0.0000   0.0000   0.0000   0.0000   0.0000

          k =-0.3750-0.6250 0.6250 (  1045 PWs)   bands (ev):

   -89.9959 -88.1403 -50.3967 -50.3905 -50.3769 -48.6013 -48.5930 -48.5860
    -4.5201  -4.4798   6.4907   7.4952   8.7266   8.9687   9.3682   9.8701
    11.6311  12.4707  12.6316  13.0261  13.1450  13.5599  13.6932  13.7822
    15.5417  15.6741  20.9034  21.2415  24.3278  24.9506

     occupation numbers 
     1.0000   1.0000   1.0000   1.0000   1.0000   1.0000   1.0000   1.0000
     1.0000   1.0000   1.0000   1.0000   1.0000   1.0000   1.0000   1.0000
     1.0000   1.0000   1.0000   1.0000   1.0000   1.0000   1.0000   1.0000
     0.0000   0.0000   0.0000   0.0000   0.0000   0.0000

          k =-0.1875-0.6875 0.5625 (  1043 PWs)   bands (ev):

   -89.9957 -88.1401 -50.3964 -50.3883 -50.3822 -48.5988 -48.5926 -48.5920
    -4.4395  -4.3910   6.9721   7.7639   8.2575   8.4977   8.9980   9.3234
    12.2042  12.5116  12.5795  13.0545  13.3120  13.5388  13.6761  13.7971
    15.2041  15.5793  22.4000  22.4372  23.8433  24.6095

     occupation numbers 
     1.0000   1.0000   1.0000   1.0000   1.0000   1.0000   1.0000   1.0000
     1.0000   1.0000   1.0000   1.0000   1.0000   1.0000   1.0000   1.0000
     1.0000   1.0000   1.0000   1.0000   1.0000   1.0000   1.0000   1.0000
     0.0000   0.0000   0.0000   0.0000   0.0000   0.0000

          k = 0.0000-0.7500 0.5000 (  1038 PWs)   bands (ev):

   -89.9958 -88.1400 -50.3964 -50.3882 -50.3822 -48.5988 -48.5926 -48.5919
    -4.4203  -4.4150   7.4597   7.4904   8.3843   8.4469   8.9132   9.0067
    12.3930  12.5373  12.6401  12.9865  13.2172  13.3877  13.7241  13.7250
    15.2475  15.4796  23.1575  23.2762  23.9866  24.0856

     occupation numbers 
     1.0000   1.0000   1.0000   1.0000   1.0000   1.0000   1.0000   1.0000
     1.0000   1.0000   1.0000   1.0000   1.0000   1.0000   1.0000   1.0000
     1.0000   1.0000   1.0000   1.0000   1.0000   1.0000   1.0000   1.0000
     0.0000   0.0000   0.0000   0.0000   0.0000   0.0000

          k =-0.4375-0.4375 0.5625 (  1039 PWs)   bands (ev):

   -89.9959 -88.1402 -50.3966 -50.3923 -50.3750 -48.6033 -48.5929 -48.5839
    -4.5236  -4.4712   6.2524   7.4791   8.8292   8.8636   9.8682  10.0478
    11.3007  12.4658  12.6762  12.9598  13.0482  13.4458  13.7020  13.8264
    15.8198  15.8515  20.2616  20.8416  24.4721  25.0143

     occupation numbers 
     1.0000   1.0000   1.0000   1.0000   1.0000   1.0000   1.0000   1.0000
     1.0000   1.0000   1.0000   1.0000   1.0000   1.0000   1.0000   1.0000
     1.0000   1.0000   1.0000   1.0000   1.0000   1.0000   1.0000   1.0000
     0.0000   0.0000   0.0000   0.0000   0.0000   0.0000

          k =-0.2500-0.5000 0.5000 (  1035 PWs)   bands (ev):

   -89.9959 -88.1402 -50.3967 -50.3905 -50.3768 -48.6013 -48.5929 -48.5860
    -4.5922  -4.4120   6.6384   7.6633   8.8235   8.9198   9.2350   9.3343
    11.9249  12.4909  12.6705  13.0336  13.0742  13.4574  13.7244  13.7940
    15.2734  15.9186  20.7999  21.6427  24.5368  24.9856

     occupation numbers 
     1.0000   1.0000   1.0000   1.0000   1.0000   1.0000   1.0000   1.0000
     1.0000   1.0000   1.0000   1.0000   1.0000   1.0000   1.0000   1.0000
     1.0000   1.0000   1.0000   1.0000   1.0000   1.0000   1.0000   1.0000
     0.0000   0.0000   0.0000   0.0000   0.0000   0.0000

          k =-0.3125-0.3125 0.4375 (  1043 PWs)   bands (ev):

   -89.9962 -88.1406 -50.3972 -50.3889 -50.3742 -48.5996 -48.5935 -48.5830
    -4.8307  -4.4188   6.9815   7.6473   8.7109   9.1116   9.1171   9.7031
    11.8031  12.5094  12.6733  12.9917  13.2405  13.3959  13.7520  13.7807
    15.4180  15.6885  19.9420  21.7094  24.9012  25.0839

     occupation numbers 
     1.0000   1.0000   1.0000   1.0000   1.0000   1.0000   1.0000   1.0000
     1.0000   1.0000   1.0000   1.0000   1.0000   1.0000   1.0000   1.0000
     1.0000   1.0000   1.0000   1.0000   1.0000   1.0000   1.0000   1.0000
     0.0000   0.0000   0.0000   0.0000   0.0000   0.0000

          k = 0.1250 0.1250 0.1250 (  1056 PWs)   bands (ev):

   -89.9978 -88.1423 -50.4000 -50.3692 -50.3692 -48.5966 -48.5775 -48.5775
    -5.7659  -4.7694   6.7579   9.0233   9.0233  10.1606  10.6828  10.6828
    11.9795  11.9795  12.3033  13.0769  13.0769  13.3065  13.3065  13.4320
    15.6123  15.6123  17.0331  19.8299  24.9165  29.1306

     occupation numbers 
     1.0000   1.0000   1.0000   1.0000   1.0000   1.0000   1.0000   1.0000
     1.0000   1.0000   1.0000   1.0000   1.0000   1.0000   1.0000   1.0000
     1.0000   1.0000   1.0000   1.0000   1.0000   1.0000   1.0000   1.0000
     0.0000   0.0000   0.0000   0.0000   0.0000   0.0000

          k = 0.3125 0.0625 0.0625 (  1046 PWs)   bands (ev):

   -89.9975 -88.1420 -50.3994 -50.3725 -50.3700 -48.5960 -48.5812 -48.5784
    -5.5649  -4.7787   7.0522   8.8997   9.0049   9.2993  10.4970  10.5981
    11.8473  12.1843  12.5724  12.8325  12.8862  13.3153  13.4405  13.6481
    14.9307  15.7735  18.1896  20.4565  25.0764  27.7094

     occupation numbers 
     1.0000   1.0000   1.0000   1.0000   1.0000   1.0000   1.0000   1.0000
     1.0000   1.0000   1.0000   1.0000   1.0000   1.0000   1.0000   1.0000
     1.0000   1.0000   1.0000   1.0000   1.0000   1.0000   1.0000   1.0000
     0.0000   0.0000   0.0000   0.0000   0.0000   0.0000

          k =-1.0000 0.5000 0.5000 (  1052 PWs)   bands (ev):

   -89.9969 -88.1413 -50.3984 -50.3808 -50.3721 -48.5948 -48.5905 -48.5807
    -5.1625  -4.6581   7.1999   7.9658   8.8962   8.9691  10.3383  10.3493
    11.5634  12.4892  12.5758  12.6012  12.8808  13.4153  13.5635  13.7503
    14.6788  15.8112  19.9585  21.5156  25.4491  25.5346

     occupation numbers 
     1.0000   1.0000   1.0000   1.0000   1.0000   1.0000   1.0000   1.0000
     1.0000   1.0000   1.0000   1.0000   1.0000   1.0000   1.0000   1.0000
     1.0000   1.0000   1.0000   1.0000   1.0000   1.0000   1.0000   1.0000
     0.0000   0.0000   0.0000   0.0000   0.0000   0.0000

          k =-0.8125 0.4375 0.4375 (  1048 PWs)   bands (ev):

   -89.9962 -88.1406 -50.3973 -50.3890 -50.3742 -48.5996 -48.5936 -48.5830
    -4.7441  -4.5043   6.8058   7.4345   8.7124   8.9115   9.9573  10.0955
    11.4431  12.4513  12.6722  12.9045  12.9973  13.4138  13.6797  13.8515
    15.0791  15.7527  21.0001  21.7061  24.2307  25.4615

     occupation numbers 
     1.0000   1.0000   1.0000   1.0000   1.0000   1.0000   1.0000   1.0000
     1.0000   1.0000   1.0000   1.0000   1.0000   1.0000   1.0000   1.0000
     1.0000   1.0000   1.0000   1.0000   1.0000   1.0000   1.0000   1.0000
     0.0000   0.0000   0.0000   0.0000   0.0000   0.0000

          k =-0.6250 0.3750 0.3750 (  1045 PWs)   bands (ev):

   -89.9959 -88.1403 -50.3967 -50.3923 -50.3750 -48.6034 -48.5930 -48.5840
    -4.5206  -4.4793   6.4899   7.4943   8.7461   8.9359   9.3845   9.8811
    11.5747  12.4984  12.7037  13.0109  13.1814  13.4203  13.6965  13.8342
    15.6069  15.6169  20.9008  21.2430  24.3282  24.9520

     occupation numbers 
     1.0000   1.0000   1.0000   1.0000   1.0000   1.0000   1.0000   1.0000
     1.0000   1.0000   1.0000   1.0000   1.0000   1.0000   1.0000   1.0000
     1.0000   1.0000   1.0000   1.0000   1.0000   1.0000   1.0000   1.0000
     0.0000   0.0000   0.0000   0.0000   0.0000   0.0000

          k = 0.2500 0.2500 0.0000 (  1045 PWs)   bands (ev):

   -89.9975 -88.1420 -50.3993 -50.3725 -50.3701 -48.5959 -48.5812 -48.5784
    -5.4960  -4.8611   7.2434   8.8621   9.2064   9.2843  10.0304  10.3253
    12.0190  12.1003  12.6044  12.8839  13.1079  13.1504  13.5098  13.8722
    15.2644  15.3341  18.2782  20.3250  25.2967  28.0616

     occupation numbers 
     1.0000   1.0000   1.0000   1.0000   1.0000   1.0000   1.0000   1.0000
     1.0000   1.0000   1.0000   1.0000   1.0000   1.0000   1.0000   1.0000
     1.0000   1.0000   1.0000   1.0000   1.0000   1.0000   1.0000   1.0000
     0.0000   0.0000   0.0000   0.0000   0.0000   0.0000

          k =-1.0625 0.6875 0.4375 (  1051 PWs)   bands (ev):

   -89.9970 -88.1415 -50.3986 -50.3781 -50.3719 -48.5951 -48.5874 -48.5805
    -5.1957  -4.7943   7.3800   8.0714   9.1171   9.3467   9.7951  10.0418
    11.9817  12.1874  12.5484  12.8551  13.0357  13.3766  13.5746  13.7558
    14.9664  15.4548  19.6174  21.0082  25.6608  26.4835

     occupation numbers 
     1.0000   1.0000   1.0000   1.0000   1.0000   1.0000   1.0000   1.0000
     1.0000   1.0000   1.0000   1.0000   1.0000   1.0000   1.0000   1.0000
     1.0000   1.0000   1.0000   1.0000   1.0000   1.0000   1.0000   1.0000
     0.0000   0.0000   0.0000   0.0000   0.0000   0.0000

          k =-0.8750 0.6250 0.3750 (  1044 PWs)   bands (ev):

   -89.9964 -88.1408 -50.3975 -50.3853 -50.3748 -48.5955 -48.5939 -48.5837
    -4.8139  -4.6123   7.1320   7.4794   8.8510   9.1152   9.5759   9.9465
    11.7651  12.3444  12.6217  12.8464  13.1521  13.5130  13.6118  13.8462
    15.0011  15.5207  20.9621  21.6306  24.7277  25.6961

     occupation numbers 
     1.0000   1.0000   1.0000   1.0000   1.0000   1.0000   1.0000   1.0000
     1.0000   1.0000   1.0000   1.0000   1.0000   1.0000   1.0000   1.0000
     1.0000   1.0000   1.0000   1.0000   1.0000   1.0000   1.0000   1.0000
     0.0000   0.0000   0.0000   0.0000   0.0000   0.0000

          k =-0.6875 0.5625 0.3125 (  1044 PWs)   bands (ev):

   -89.9959 -88.1403 -50.3967 -50.3905 -50.3769 -48.6013 -48.5930 -48.5860
    -4.5239  -4.4780   6.6340   7.4494   8.6534   8.9660   9.3843   9.7126
    11.7491  12.4888  12.6208  13.0418  13.1274  13.5452  13.7163  13.7975
    15.3673  15.6131  21.4056  21.4823  24.1278  24.9406

     occupation numbers 
     1.0000   1.0000   1.0000   1.0000   1.0000   1.0000   1.0000   1.0000
     1.0000   1.0000   1.0000   1.0000   1.0000   1.0000   1.0000   1.0000
     1.0000   1.0000   1.0000   1.0000   1.0000   1.0000   1.0000   1.0000
     0.0000   0.0000   0.0000   0.0000   0.0000   0.0000

          k =-0.6250-0.6250 0.8750 (  1045 PWs)   bands (ev):

   -89.9969 -88.1413 -50.3983 -50.3808 -50.3721 -48.5948 -48.5904 -48.5807
    -5.0186  -4.8140   7.4424   7.6512   9.1761   9.4012   9.6831   9.9517
    11.7173  12.3633  12.5019  12.9219  13.1167  13.3717  13.7014  13.7028
    14.9634  15.6207  19.8677  20.9633  25.6887  25.9504

     occupation numbers 
     1.0000   1.0000   1.0000   1.0000   1.0000   1.0000   1.0000   1.0000
     1.0000   1.0000   1.0000   1.0000   1.0000   1.0000   1.0000   1.0000
     1.0000   1.0000   1.0000   1.0000   1.0000   1.0000   1.0000   1.0000
     0.0000   0.0000   0.0000   0.0000   0.0000   0.0000

          k =-0.4375-0.6875 0.8125 (  1043 PWs)   bands (ev):

   -89.9964 -88.1408 -50.3975 -50.3853 -50.3748 -48.5955 -48.5939 -48.5837
    -4.7395  -4.6881   7.1290   7.4131   8.9570   9.2413   9.5149   9.8038
    11.8127  12.2667  12.6421  12.8290  13.2070  13.5510  13.6407  13.8374
    15.1271  15.4704  20.8953  21.2881  24.9987  25.2829

     occupation numbers 
     1.0000   1.0000   1.0000   1.0000   1.0000   1.0000   1.0000   1.0000
     1.0000   1.0000   1.0000   1.0000   1.0000   1.0000   1.0000   1.0000
     1.0000   1.0000   1.0000   1.0000   1.0000   1.0000   1.0000   1.0000
     0.0000   0.0000   0.0000   0.0000   0.0000   0.0000

          k =-0.2500-0.7500 0.7500 (  1038 PWs)   bands (ev):

   -89.9959 -88.1402 -50.3967 -50.3879 -50.3794 -48.5984 -48.5929 -48.5888
    -4.5067  -4.5005   7.2051   7.2232   8.5800   8.6981   9.2634   9.5023
    12.1326  12.2452  12.6200  13.0622  13.3471  13.7151  13.7308  13.7708
    15.2636  15.2698  21.9361  22.0432  24.2039  24.3142

     occupation numbers 
     1.0000   1.0000   1.0000   1.0000   1.0000   1.0000   1.0000   1.0000
     1.0000   1.0000   1.0000   1.0000   1.0000   1.0000   1.0000   1.0000
     1.0000   1.0000   1.0000   1.0000   1.0000   1.0000   1.0000   1.0000
     0.0000   0.0000   0.0000   0.0000   0.0000   0.0000

          k =-0.5000-0.5000 0.7500 (  1043 PWs)   bands (ev):

   -89.9962 -88.1406 -50.3972 -50.3890 -50.3741 -48.5996 -48.5935 -48.5830
    -4.6562  -4.5921   6.6395   7.4033   8.9023   8.9179  10.1406  10.1458
    11.2600  12.4536  12.6052  12.7954  13.0780  13.4813  13.6770  13.8108
    15.2756  15.8577  20.8006  20.9564  24.5334  25.2077

     occupation numbers 
     1.0000   1.0000   1.0000   1.0000   1.0000   1.0000   1.0000   1.0000
     1.0000   1.0000   1.0000   1.0000   1.0000   1.0000   1.0000   1.0000
     1.0000   1.0000   1.0000   1.0000   1.0000   1.0000   1.0000   1.0000
     0.0000   0.0000   0.0000   0.0000   0.0000   0.0000

          k = 0.1875 0.1875 0.1875 (  1053 PWs)   bands (ev):

   -89.9978 -88.1423 -50.3998 -50.3692 -50.3692 -48.5966 -48.5775 -48.5775
    -5.5585  -5.0219   7.4256   9.2054   9.2297   9.2297  10.2523  10.2523
    12.0201  12.0201  12.3845  13.1506  13.1506  13.3200  13.6100  13.6100
    15.3924  15.3924  17.9042  19.4254  25.5867  27.9748

     occupation numbers 
     1.0000   1.0000   1.0000   1.0000   1.0000   1.0000   1.0000   1.0000
     1.0000   1.0000   1.0000   1.0000   1.0000   1.0000   1.0000   1.0000
     1.0000   1.0000   1.0000   1.0000   1.0000   1.0000   1.0000   1.0000
     0.0000   0.0000   0.0000   0.0000   0.0000   0.0000

          k =-1.1250 0.6250 0.6250 (  1053 PWs)   bands (ev):

   -89.9975 -88.1420 -50.3994 -50.3726 -50.3701 -48.5961 -48.5813 -48.5784
    -5.3559  -5.0188   7.6157   8.4347   9.1764   9.4999   9.9761  10.2464
    11.8976  12.1575  12.6091  12.9244  13.0108  13.3688  13.4892  13.6635
    14.9146  15.6064  18.9707  19.8683  25.9464  27.5546

     occupation numbers 
     1.0000   1.0000   1.0000   1.0000   1.0000   1.0000   1.0000   1.0000
     1.0000   1.0000   1.0000   1.0000   1.0000   1.0000   1.0000   1.0000
     1.0000   1.0000   1.0000   1.0000   1.0000   1.0000   1.0000   1.0000
     0.0000   0.0000   0.0000   0.0000   0.0000   0.0000

          k =-0.9375 0.5625 0.5625 (  1047 PWs)   bands (ev):

   -89.9968 -88.1413 -50.3983 -50.3808 -50.3720 -48.5948 -48.5904 -48.5807
    -4.9973  -4.8354   7.3489   7.7160   9.0550   9.2223  10.0764  10.1817
    11.5830  12.4108  12.5516  12.7143  12.9715  13.4123  13.6112  13.7234
    14.7666  15.7774  20.4671  20.6823  25.6876  26.6306

     occupation numbers 
     1.0000   1.0000   1.0000   1.0000   1.0000   1.0000   1.0000   1.0000
     1.0000   1.0000   1.0000   1.0000   1.0000   1.0000   1.0000   1.0000
     1.0000   1.0000   1.0000   1.0000   1.0000   1.0000   1.0000   1.0000
     0.0000   0.0000   0.0000   0.0000   0.0000   0.0000

          k =-0.6875-0.6875 1.0625 (  1054 PWs)   bands (ev):

   -89.9975 -88.1420 -50.3995 -50.3726 -50.3700 -48.5961 -48.5813 -48.5784
    -5.2703  -5.1099   7.8169   8.2812   9.3402   9.4614   9.9306   9.9748
    11.9610  12.1307  12.6386  12.9183  13.0765  13.2707  13.5408  13.7568
    15.1103  15.3875  19.1025  19.7162  26.3029  27.0384

     occupation numbers 
     1.0000   1.0000   1.0000   1.0000   1.0000   1.0000   1.0000   1.0000
     1.0000   1.0000   1.0000   1.0000   1.0000   1.0000   1.0000   1.0000
     1.0000   1.0000   1.0000   1.0000   1.0000   1.0000   1.0000   1.0000
     0.0000   0.0000   0.0000   0.0000   0.0000   0.0000

          k =-0.5000-0.7500 1.0000 (  1056 PWs)   bands (ev):

   -89.9970 -88.1415 -50.3986 -50.3781 -50.3720 -48.5952 -48.5874 -48.5805
    -4.9995  -4.9993   7.6035   7.8042   9.2585   9.6509   9.6791   9.7498
    12.0295  12.1378  12.5779  12.7978  13.0121  13.4039  13.5874  13.7101
    15.0398  15.3938  20.3012  20.3330  26.6489  26.6958

     occupation numbers 
     1.0000   1.0000   1.0000   1.0000   1.0000   1.0000   1.0000   1.0000
     1.0000   1.0000   1.0000   1.0000   1.0000   1.0000   1.0000   1.0000
     1.0000   1.0000   1.0000   1.0000   1.0000   1.0000   1.0000   1.0000
     0.0000   0.0000   0.0000   0.0000   0.0000   0.0000

          k =-0.2500-0.2500-0.2500 (  1050 PWs)   bands (ev):

   -89.9977 -88.1423 -50.3998 -50.3692 -50.3692 -48.5966 -48.5774 -48.5774
    -5.3019  -5.2969   8.2388   8.2914   9.3708   9.3708  10.0342  10.0342
    12.0380  12.0380  12.4136  13.1373  13.1373  13.2708  13.7882  13.7882
    15.2770  15.2770  18.6866  18.8119  26.5694  26.6992

     occupation numbers 
     1.0000   1.0000   1.0000   1.0000   1.0000   1.0000   1.0000   1.0000
     1.0000   1.0000   1.0000   1.0000   1.0000   1.0000   1.0000   1.0000
     1.0000   1.0000   1.0000   1.0000   1.0000   1.0000   1.0000   1.0000
     0.0000   0.0000   0.0000   0.0000   0.0000   0.0000

     the Fermi energy is    14.1570 ev
     (compare with:    14.3339 eV, computed in scf)

     Writing all to output data dir ./nio.save/

     init_run     :      2.10s CPU      2.34s WALL (       1 calls)
     electrons    :    206.62s CPU    210.46s WALL (       1 calls)

     Called by init_run:
     wfcinit      :      0.00s CPU      0.00s WALL (       1 calls)
     wfcinit:atom :      0.07s CPU      0.10s WALL (     130 calls)
     wfcinit:wfcr :     16.87s CPU     17.41s WALL (     130 calls)
     potinit      :      0.67s CPU      0.75s WALL (       1 calls)
     hinit0       :      1.14s CPU      1.16s WALL (       1 calls)

     Called by electrons:
     c_bands      :    206.54s CPU    210.35s WALL (       1 calls)
     v_of_rho     :      0.61s CPU      0.68s WALL (       1 calls)
     v_h          :      0.01s CPU      0.01s WALL (       1 calls)
     v_xc         :      0.60s CPU      0.67s WALL (       1 calls)
     newd         :      0.24s CPU      0.37s WALL (       1 calls)

     Called by c_bands:
     init_us_2    :      0.09s CPU      0.12s WALL (     130 calls)
     init_us_2:cp :      0.09s CPU      0.12s WALL (     130 calls)
     cegterg      :    188.74s CPU    191.84s WALL (     201 calls)

     Called by sum_band:

     Called by *egterg:
     cdiaghg      :      5.89s CPU      6.01s WALL (    2916 calls)
     cegterg:over :     10.97s CPU     11.12s WALL (    2786 calls)
     cegterg:upda :      5.14s CPU      5.23s WALL (    2786 calls)
     cegterg:last :     14.27s CPU     14.43s WALL (    1554 calls)
     h_psi        :    160.48s CPU    163.45s WALL (    3117 calls)
     s_psi        :      6.13s CPU      6.25s WALL (    3117 calls)
     g_psi        :      0.27s CPU      0.27s WALL (    2786 calls)

     Called by h_psi:
     h_psi:calbec :      7.57s CPU      7.69s WALL (    3117 calls)
     vloc_psi     :    146.52s CPU    149.28s WALL (    3117 calls)
     add_vuspsi   :      6.15s CPU      6.26s WALL (    3117 calls)

     General routines
     calbec       :      7.55s CPU      7.68s WALL (    3117 calls)
     fft          :      0.22s CPU      0.23s WALL (      23 calls)
     ffts         :      0.00s CPU      0.00s WALL (       2 calls)
     fftw         :    135.10s CPU    137.80s WALL (  107112 calls)
     interpolate  :      0.02s CPU      0.03s WALL (       2 calls)
     davcio       :      0.07s CPU      0.12s WALL (     260 calls)

     Parallel routines

     PWSCF        :   3m29.97s CPU   3m34.38s WALL


   This run was terminated on:  15:21:41   4Feb2022            

=------------------------------------------------------------------------------=
   JOB DONE.
=------------------------------------------------------------------------------=
