
     Program PWSCF v.7.0 starts on  4Feb2022 at 14:53:28 

     This program is part of the open-source Quantum ESPRESSO suite
     for quantum simulation of materials; please cite
         "P. Giannozzi et al., J. Phys.:Condens. Matter 21 395502 (2009);
         "P. Giannozzi et al., J. Phys.:Condens. Matter 29 465901 (2017);
         "P. Giannozzi et al., J. Chem. Phys. 152 154105 (2020);
          URL http://www.quantum-espresso.org", 
     in publications or presentations arising from this work. More details at
     http://www.quantum-espresso.org/quote

     Parallel version (MPI), running on     1 processors

     MPI processes distributed on     1 nodes
     333 MiB available memory on the printing compute node when the environment starts

     Reading input from 01-fe-nfm-scf.in

     Current dimensions of program PWSCF are:
     Max number of different atomic species (ntypx) = 10
     Max number of k-points (npk) =  40000
     Max angular momentum in pseudopotentials (lmaxx) =  4

     Subspace diagonalization in iterative solution of the eigenvalue problem:
     a serial algorithm will be used


     G-vector sticks info
     --------------------
     sticks:   dense  smooth     PW     G-vecs:    dense   smooth      PW
     Sum         645     261     91                10425     2659     555

     Using Slab Decomposition



     bravais-lattice index     =            3
     lattice parameter (alat)  =       5.3603  a.u.
     unit-cell volume          =      77.0100 (a.u.)^3
     number of atoms/cell      =            1
     number of atomic types    =            1
     number of electrons       =        16.00
     number of Kohn-Sham states=           20
     kinetic-energy cutoff     =      40.0000  Ry
     charge density cutoff     =     400.0000  Ry
     scf convergence threshold =      1.0E-10
     mixing beta               =       0.5000
     number of iterations used =            8  plain     mixing
     Exchange-correlation=  SLA  PW   PBX  PBC
                           (   1   4   3   4   0   0   0)

     celldm(1)=   5.360341  celldm(2)=   0.000000  celldm(3)=   0.000000
     celldm(4)=   0.000000  celldm(5)=   0.000000  celldm(6)=   0.000000

     crystal axes: (cart. coord. in units of alat)
               a(1) = (   0.500000   0.500000   0.500000 )  
               a(2) = (  -0.500000   0.500000   0.500000 )  
               a(3) = (  -0.500000  -0.500000   0.500000 )  

     reciprocal axes: (cart. coord. in units 2 pi/alat)
               b(1) = (  1.000000  0.000000  1.000000 )  
               b(2) = ( -1.000000  1.000000  0.000000 )  
               b(3) = (  0.000000 -1.000000  1.000000 )  


     PseudoPot. # 1 for Fe read from file:
     /home/user/pseudo_dir/fe_pbe_v1.5.uspp.F.UPF
     MD5 check sum: a130daea23fe5165f5d574ae7f82ed95
     Pseudo is Ultrasoft + core correction, Zval = 16.0
     Generated by new atomic code, or converted to UPF format
     Using radial grid of  861 points,  6 beta functions with: 
                l(1) =   0
                l(2) =   0
                l(3) =   1
                l(4) =   1
                l(5) =   2
                l(6) =   2
     Q(r) pseudized with  8 coefficients,  rinner =    1.000   1.000   1.000
                                                       1.000   1.000

     atomic species   valence    mass     pseudopotential
        Fe            16.00    55.84700     Fe( 1.00)

     Starting magnetic structure 
     atomic species   magnetization
        Fe           0.000

     48 Sym. Ops., with inversion, found


                                    s                        frac. trans.

      isym =  1     identity                                     

 cryst.   s( 1) = (     1          0          0      )
                  (     0          1          0      )
                  (     0          0          1      )

 cart.    s( 1) = (  1.0000000  0.0000000  0.0000000 )
                  (  0.0000000  1.0000000  0.0000000 )
                  (  0.0000000  0.0000000  1.0000000 )


      isym =  2     180 deg rotation - cart. axis [0,0,1]        

 cryst.   s( 2) = (     0          0          1      )
                  (     1         -1          1      )
                  (     1          0          0      )

 cart.    s( 2) = ( -1.0000000  0.0000000  0.0000000 )
                  (  0.0000000 -1.0000000  0.0000000 )
                  (  0.0000000  0.0000000  1.0000000 )


      isym =  3     180 deg rotation - cart. axis [0,1,0]        

 cryst.   s( 3) = (    -1          1         -1      )
                  (     0          0         -1      )
                  (     0         -1          0      )

 cart.    s( 3) = ( -1.0000000  0.0000000  0.0000000 )
                  (  0.0000000  1.0000000  0.0000000 )
                  (  0.0000000  0.0000000 -1.0000000 )


      isym =  4     180 deg rotation - cart. axis [1,0,0]        

 cryst.   s( 4) = (     0         -1          0      )
                  (    -1          0          0      )
                  (    -1          1         -1      )

 cart.    s( 4) = (  1.0000000  0.0000000  0.0000000 )
                  (  0.0000000 -1.0000000  0.0000000 )
                  (  0.0000000  0.0000000 -1.0000000 )


      isym =  5     180 deg rotation - cart. axis [1,1,0]        

 cryst.   s( 5) = (     0          0         -1      )
                  (     0         -1          0      )
                  (    -1          0          0      )

 cart.    s( 5) = (  0.0000000  1.0000000  0.0000000 )
                  (  1.0000000  0.0000000  0.0000000 )
                  (  0.0000000  0.0000000 -1.0000000 )


      isym =  6     180 deg rotation - cart. axis [1,-1,0]       

 cryst.   s( 6) = (    -1          0          0      )
                  (    -1          1         -1      )
                  (     0          0         -1      )

 cart.    s( 6) = (  0.0000000 -1.0000000  0.0000000 )
                  ( -1.0000000  0.0000000  0.0000000 )
                  (  0.0000000  0.0000000 -1.0000000 )


      isym =  7      90 deg rotation - cart. axis [0,0,-1]       

 cryst.   s( 7) = (     1         -1          1      )
                  (     1          0          0      )
                  (     0          1          0      )

 cart.    s( 7) = (  0.0000000  1.0000000  0.0000000 )
                  ( -1.0000000  0.0000000  0.0000000 )
                  (  0.0000000  0.0000000  1.0000000 )


      isym =  8      90 deg rotation - cart. axis [0,0,1]        

 cryst.   s( 8) = (     0          1          0      )
                  (     0          0          1      )
                  (     1         -1          1      )

 cart.    s( 8) = (  0.0000000 -1.0000000  0.0000000 )
                  (  1.0000000  0.0000000  0.0000000 )
                  (  0.0000000  0.0000000  1.0000000 )


      isym =  9     180 deg rotation - cart. axis [1,0,1]        

 cryst.   s( 9) = (     1         -1          1      )
                  (     0         -1          0      )
                  (     0          0         -1      )

 cart.    s( 9) = (  0.0000000  0.0000000  1.0000000 )
                  (  0.0000000 -1.0000000  0.0000000 )
                  (  1.0000000  0.0000000  0.0000000 )


      isym = 10     180 deg rotation - cart. axis [-1,0,1]       

 cryst.   s(10) = (    -1          0          0      )
                  (     0          0          1      )
                  (     0          1          0      )

 cart.    s(10) = (  0.0000000  0.0000000 -1.0000000 )
                  (  0.0000000 -1.0000000  0.0000000 )
                  ( -1.0000000  0.0000000  0.0000000 )


      isym = 11      90 deg rotation - cart. axis [0,1,0]        

 cryst.   s(11) = (     0          0         -1      )
                  (     1          0          0      )
                  (     1         -1          1      )

 cart.    s(11) = (  0.0000000  0.0000000  1.0000000 )
                  (  0.0000000  1.0000000  0.0000000 )
                  ( -1.0000000  0.0000000  0.0000000 )


      isym = 12      90 deg rotation - cart. axis [0,-1,0]       

 cryst.   s(12) = (     0          1          0      )
                  (    -1          1         -1      )
                  (    -1          0          0      )

 cart.    s(12) = (  0.0000000  0.0000000 -1.0000000 )
                  (  0.0000000  1.0000000  0.0000000 )
                  (  1.0000000  0.0000000  0.0000000 )


      isym = 13     180 deg rotation - cart. axis [0,1,1]        

 cryst.   s(13) = (     0          1          0      )
                  (     1          0          0      )
                  (     0          0         -1      )

 cart.    s(13) = ( -1.0000000  0.0000000  0.0000000 )
                  (  0.0000000  0.0000000  1.0000000 )
                  (  0.0000000  1.0000000  0.0000000 )


      isym = 14     180 deg rotation - cart. axis [0,1,-1]       

 cryst.   s(14) = (    -1          0          0      )
                  (     0         -1          0      )
                  (     1         -1          1      )

 cart.    s(14) = ( -1.0000000  0.0000000  0.0000000 )
                  (  0.0000000  0.0000000 -1.0000000 )
                  (  0.0000000 -1.0000000  0.0000000 )


      isym = 15      90 deg rotation - cart. axis [-1,0,0]       

 cryst.   s(15) = (     0          0         -1      )
                  (    -1          1         -1      )
                  (     0          1          0      )

 cart.    s(15) = (  1.0000000  0.0000000  0.0000000 )
                  (  0.0000000  0.0000000  1.0000000 )
                  (  0.0000000 -1.0000000  0.0000000 )


      isym = 16      90 deg rotation - cart. axis [1,0,0]        

 cryst.   s(16) = (     1         -1          1      )
                  (     0          0          1      )
                  (    -1          0          0      )

 cart.    s(16) = (  1.0000000  0.0000000  0.0000000 )
                  (  0.0000000  0.0000000 -1.0000000 )
                  (  0.0000000  1.0000000  0.0000000 )


      isym = 17     120 deg rotation - cart. axis [-1,-1,-1]     

 cryst.   s(17) = (     1          0          0      )
                  (     0          0         -1      )
                  (    -1          1         -1      )

 cart.    s(17) = (  0.0000000  1.0000000  0.0000000 )
                  (  0.0000000  0.0000000  1.0000000 )
                  (  1.0000000  0.0000000  0.0000000 )


      isym = 18     120 deg rotation - cart. axis [-1,1,1]       

 cryst.   s(18) = (    -1          1         -1      )
                  (     0          1          0      )
                  (     1          0          0      )

 cart.    s(18) = (  0.0000000 -1.0000000  0.0000000 )
                  (  0.0000000  0.0000000  1.0000000 )
                  ( -1.0000000  0.0000000  0.0000000 )


      isym = 19     120 deg rotation - cart. axis [1,1,-1]       

 cryst.   s(19) = (     0         -1          0      )
                  (     1         -1          1      )
                  (     0          0          1      )

 cart.    s(19) = (  0.0000000  1.0000000  0.0000000 )
                  (  0.0000000  0.0000000 -1.0000000 )
                  ( -1.0000000  0.0000000  0.0000000 )


      isym = 20     120 deg rotation - cart. axis [1,-1,1]       

 cryst.   s(20) = (     0          0          1      )
                  (    -1          0          0      )
                  (     0         -1          0      )

 cart.    s(20) = (  0.0000000 -1.0000000  0.0000000 )
                  (  0.0000000  0.0000000 -1.0000000 )
                  (  1.0000000  0.0000000  0.0000000 )


      isym = 21     120 deg rotation - cart. axis [1,1,1]        

 cryst.   s(21) = (     1          0          0      )
                  (     1         -1          1      )
                  (     0         -1          0      )

 cart.    s(21) = (  0.0000000  0.0000000  1.0000000 )
                  (  1.0000000  0.0000000  0.0000000 )
                  (  0.0000000  1.0000000  0.0000000 )


      isym = 22     120 deg rotation - cart. axis [-1,1,-1]      

 cryst.   s(22) = (     0         -1          0      )
                  (     0          0         -1      )
                  (     1          0          0      )

 cart.    s(22) = (  0.0000000  0.0000000  1.0000000 )
                  ( -1.0000000  0.0000000  0.0000000 )
                  (  0.0000000 -1.0000000  0.0000000 )


      isym = 23     120 deg rotation - cart. axis [1,-1,-1]      

 cryst.   s(23) = (     0          0          1      )
                  (     0          1          0      )
                  (    -1          1         -1      )

 cart.    s(23) = (  0.0000000  0.0000000 -1.0000000 )
                  ( -1.0000000  0.0000000  0.0000000 )
                  (  0.0000000  1.0000000  0.0000000 )


      isym = 24     120 deg rotation - cart. axis [-1,-1,1]      

 cryst.   s(24) = (    -1          1         -1      )
                  (    -1          0          0      )
                  (     0          0          1      )

 cart.    s(24) = (  0.0000000  0.0000000 -1.0000000 )
                  (  1.0000000  0.0000000  0.0000000 )
                  (  0.0000000 -1.0000000  0.0000000 )


      isym = 25     inversion                                    

 cryst.   s(25) = (    -1          0          0      )
                  (     0         -1          0      )
                  (     0          0         -1      )

 cart.    s(25) = ( -1.0000000  0.0000000  0.0000000 )
                  (  0.0000000 -1.0000000  0.0000000 )
                  (  0.0000000  0.0000000 -1.0000000 )


      isym = 26     inv. 180 deg rotation - cart. axis [0,0,1]   

 cryst.   s(26) = (     0          0         -1      )
                  (    -1          1         -1      )
                  (    -1          0          0      )

 cart.    s(26) = (  1.0000000  0.0000000  0.0000000 )
                  (  0.0000000  1.0000000  0.0000000 )
                  (  0.0000000  0.0000000 -1.0000000 )


      isym = 27     inv. 180 deg rotation - cart. axis [0,1,0]   

 cryst.   s(27) = (     1         -1          1      )
                  (     0          0          1      )
                  (     0          1          0      )

 cart.    s(27) = (  1.0000000  0.0000000  0.0000000 )
                  (  0.0000000 -1.0000000  0.0000000 )
                  (  0.0000000  0.0000000  1.0000000 )


      isym = 28     inv. 180 deg rotation - cart. axis [1,0,0]   

 cryst.   s(28) = (     0          1          0      )
                  (     1          0          0      )
                  (     1         -1          1      )

 cart.    s(28) = ( -1.0000000  0.0000000  0.0000000 )
                  (  0.0000000  1.0000000  0.0000000 )
                  (  0.0000000  0.0000000  1.0000000 )


      isym = 29     inv. 180 deg rotation - cart. axis [1,1,0]   

 cryst.   s(29) = (     0          0          1      )
                  (     0          1          0      )
                  (     1          0          0      )

 cart.    s(29) = (  0.0000000 -1.0000000  0.0000000 )
                  ( -1.0000000  0.0000000  0.0000000 )
                  (  0.0000000  0.0000000  1.0000000 )


      isym = 30     inv. 180 deg rotation - cart. axis [1,-1,0]  

 cryst.   s(30) = (     1          0          0      )
                  (     1         -1          1      )
                  (     0          0          1      )

 cart.    s(30) = (  0.0000000  1.0000000  0.0000000 )
                  (  1.0000000  0.0000000  0.0000000 )
                  (  0.0000000  0.0000000  1.0000000 )


      isym = 31     inv.  90 deg rotation - cart. axis [0,0,-1]  

 cryst.   s(31) = (    -1          1         -1      )
                  (    -1          0          0      )
                  (     0         -1          0      )

 cart.    s(31) = (  0.0000000 -1.0000000  0.0000000 )
                  (  1.0000000  0.0000000  0.0000000 )
                  (  0.0000000  0.0000000 -1.0000000 )


      isym = 32     inv.  90 deg rotation - cart. axis [0,0,1]   

 cryst.   s(32) = (     0         -1          0      )
                  (     0          0         -1      )
                  (    -1          1         -1      )

 cart.    s(32) = (  0.0000000  1.0000000  0.0000000 )
                  ( -1.0000000  0.0000000  0.0000000 )
                  (  0.0000000  0.0000000 -1.0000000 )


      isym = 33     inv. 180 deg rotation - cart. axis [1,0,1]   

 cryst.   s(33) = (    -1          1         -1      )
                  (     0          1          0      )
                  (     0          0          1      )

 cart.    s(33) = (  0.0000000  0.0000000 -1.0000000 )
                  (  0.0000000  1.0000000  0.0000000 )
                  ( -1.0000000  0.0000000  0.0000000 )


      isym = 34     inv. 180 deg rotation - cart. axis [-1,0,1]  

 cryst.   s(34) = (     1          0          0      )
                  (     0          0         -1      )
                  (     0         -1          0      )

 cart.    s(34) = (  0.0000000  0.0000000  1.0000000 )
                  (  0.0000000  1.0000000  0.0000000 )
                  (  1.0000000  0.0000000  0.0000000 )


      isym = 35     inv.  90 deg rotation - cart. axis [0,1,0]   

 cryst.   s(35) = (     0          0          1      )
                  (    -1          0          0      )
                  (    -1          1         -1      )

 cart.    s(35) = (  0.0000000  0.0000000 -1.0000000 )
                  (  0.0000000 -1.0000000  0.0000000 )
                  (  1.0000000  0.0000000  0.0000000 )


      isym = 36     inv.  90 deg rotation - cart. axis [0,-1,0]  

 cryst.   s(36) = (     0         -1          0      )
                  (     1         -1          1      )
                  (     1          0          0      )

 cart.    s(36) = (  0.0000000  0.0000000  1.0000000 )
                  (  0.0000000 -1.0000000  0.0000000 )
                  ( -1.0000000  0.0000000  0.0000000 )


      isym = 37     inv. 180 deg rotation - cart. axis [0,1,1]   

 cryst.   s(37) = (     0         -1          0      )
                  (    -1          0          0      )
                  (     0          0          1      )

 cart.    s(37) = (  1.0000000  0.0000000  0.0000000 )
                  (  0.0000000  0.0000000 -1.0000000 )
                  (  0.0000000 -1.0000000  0.0000000 )


      isym = 38     inv. 180 deg rotation - cart. axis [0,1,-1]  

 cryst.   s(38) = (     1          0          0      )
                  (     0          1          0      )
                  (    -1          1         -1      )

 cart.    s(38) = (  1.0000000  0.0000000  0.0000000 )
                  (  0.0000000  0.0000000  1.0000000 )
                  (  0.0000000  1.0000000  0.0000000 )


      isym = 39     inv.  90 deg rotation - cart. axis [-1,0,0]  

 cryst.   s(39) = (     0          0          1      )
                  (     1         -1          1      )
                  (     0         -1          0      )

 cart.    s(39) = ( -1.0000000  0.0000000  0.0000000 )
                  (  0.0000000  0.0000000 -1.0000000 )
                  (  0.0000000  1.0000000  0.0000000 )


      isym = 40     inv.  90 deg rotation - cart. axis [1,0,0]   

 cryst.   s(40) = (    -1          1         -1      )
                  (     0          0         -1      )
                  (     1          0          0      )

 cart.    s(40) = ( -1.0000000  0.0000000  0.0000000 )
                  (  0.0000000  0.0000000  1.0000000 )
                  (  0.0000000 -1.0000000  0.0000000 )


      isym = 41     inv. 120 deg rotation - cart. axis [-1,-1,-1]

 cryst.   s(41) = (    -1          0          0      )
                  (     0          0          1      )
                  (     1         -1          1      )

 cart.    s(41) = (  0.0000000 -1.0000000  0.0000000 )
                  (  0.0000000  0.0000000 -1.0000000 )
                  ( -1.0000000  0.0000000  0.0000000 )


      isym = 42     inv. 120 deg rotation - cart. axis [-1,1,1]  

 cryst.   s(42) = (     1         -1          1      )
                  (     0         -1          0      )
                  (    -1          0          0      )

 cart.    s(42) = (  0.0000000  1.0000000  0.0000000 )
                  (  0.0000000  0.0000000 -1.0000000 )
                  (  1.0000000  0.0000000  0.0000000 )


      isym = 43     inv. 120 deg rotation - cart. axis [1,1,-1]  

 cryst.   s(43) = (     0          1          0      )
                  (    -1          1         -1      )
                  (     0          0         -1      )

 cart.    s(43) = (  0.0000000 -1.0000000  0.0000000 )
                  (  0.0000000  0.0000000  1.0000000 )
                  (  1.0000000  0.0000000  0.0000000 )


      isym = 44     inv. 120 deg rotation - cart. axis [1,-1,1]  

 cryst.   s(44) = (     0          0         -1      )
                  (     1          0          0      )
                  (     0          1          0      )

 cart.    s(44) = (  0.0000000  1.0000000  0.0000000 )
                  (  0.0000000  0.0000000  1.0000000 )
                  ( -1.0000000  0.0000000  0.0000000 )


      isym = 45     inv. 120 deg rotation - cart. axis [1,1,1]   

 cryst.   s(45) = (    -1          0          0      )
                  (    -1          1         -1      )
                  (     0          1          0      )

 cart.    s(45) = (  0.0000000  0.0000000 -1.0000000 )
                  ( -1.0000000  0.0000000  0.0000000 )
                  (  0.0000000 -1.0000000  0.0000000 )


      isym = 46     inv. 120 deg rotation - cart. axis [-1,1,-1] 

 cryst.   s(46) = (     0          1          0      )
                  (     0          0          1      )
                  (    -1          0          0      )

 cart.    s(46) = (  0.0000000  0.0000000 -1.0000000 )
                  (  1.0000000  0.0000000  0.0000000 )
                  (  0.0000000  1.0000000  0.0000000 )


      isym = 47     inv. 120 deg rotation - cart. axis [1,-1,-1] 

 cryst.   s(47) = (     0          0         -1      )
                  (     0         -1          0      )
                  (     1         -1          1      )

 cart.    s(47) = (  0.0000000  0.0000000  1.0000000 )
                  (  1.0000000  0.0000000  0.0000000 )
                  (  0.0000000 -1.0000000  0.0000000 )


      isym = 48     inv. 120 deg rotation - cart. axis [-1,-1,1] 

 cryst.   s(48) = (     1         -1          1      )
                  (     1          0          0      )
                  (     0          0         -1      )

 cart.    s(48) = (  0.0000000  0.0000000  1.0000000 )
                  ( -1.0000000  0.0000000  0.0000000 )
                  (  0.0000000  1.0000000  0.0000000 )


     point group O_h (m-3m) 
     there are 10 classes
     the character table:

       E     8C3   3C2   6C4   6C2'  i     8S6   3s_h  6S4   6s_d 
A_1g   1.00  1.00  1.00  1.00  1.00  1.00  1.00  1.00  1.00  1.00
A_2g   1.00  1.00  1.00 -1.00 -1.00  1.00  1.00  1.00 -1.00 -1.00
E_g    2.00 -1.00  2.00  0.00  0.00  2.00 -1.00  2.00  0.00  0.00
T_1g   3.00  0.00 -1.00  1.00 -1.00  3.00  0.00 -1.00  1.00 -1.00
T_2g   3.00  0.00 -1.00 -1.00  1.00  3.00  0.00 -1.00 -1.00  1.00
A_1u   1.00  1.00  1.00  1.00  1.00 -1.00 -1.00 -1.00 -1.00 -1.00
A_2u   1.00  1.00  1.00 -1.00 -1.00 -1.00 -1.00 -1.00  1.00  1.00
E_u    2.00 -1.00  2.00  0.00  0.00 -2.00  1.00 -2.00  0.00  0.00
T_1u   3.00  0.00 -1.00  1.00 -1.00 -3.00  0.00  1.00 -1.00  1.00
T_2u   3.00  0.00 -1.00 -1.00  1.00 -3.00  0.00  1.00  1.00 -1.00

     the symmetry operations in each class and the name of the first element:

     E        1
          identity                                               
     8C3     17   19   20   18   24   21   22   23
          120 deg rotation - cart. axis [-1,-1,-1]               
     3C2      2    4    3
          180 deg rotation - cart. axis [0,0,1]                  
     6C4      7    8   15   16   12   11
           90 deg rotation - cart. axis [0,0,-1]                 
     6C2'     5    6   14   13   10    9
          180 deg rotation - cart. axis [1,1,0]                  
     i       25
          inversion                                              
     8S6     41   43   44   42   48   45   46   47
          inv. 120 deg rotation - cart. axis [-1,-1,-1]          
     3s_h    26   28   27
          inv. 180 deg rotation - cart. axis [0,0,1]             
     6S4     31   32   39   40   36   35
          inv.  90 deg rotation - cart. axis [0,0,-1]            
     6s_d    29   30   38   37   34   33
          inv. 180 deg rotation - cart. axis [1,1,0]             

   Cartesian axes

     site n.     atom                  positions (alat units)
         1           Fe  tau(   1) = (   0.0000000   0.0000000   0.0000000  )

   Crystallographic axes

     site n.     atom                  positions (cryst. coord.)
         1           Fe  tau(   1) = (  0.0000000  0.0000000  0.0000000  )

     number of k points=    47  Methfessel-Paxton smearing, width (Ry)=  0.0100
                       cart. coord. in units 2pi/alat
        k(    1) = (   0.0000000   0.0000000   0.0000000), wk =   0.0010000
        k(    2) = (   0.0000000  -0.1000000   0.1000000), wk =   0.0120000
        k(    3) = (   0.0000000  -0.2000000   0.2000000), wk =   0.0120000
        k(    4) = (   0.0000000  -0.3000000   0.3000000), wk =   0.0120000
        k(    5) = (   0.0000000  -0.4000000   0.4000000), wk =   0.0120000
        k(    6) = (   0.0000000   0.5000000  -0.5000000), wk =   0.0060000
        k(    7) = (  -0.1000000  -0.1000000   0.2000000), wk =   0.0240000
        k(    8) = (  -0.1000000  -0.2000000   0.3000000), wk =   0.0480000
        k(    9) = (  -0.1000000  -0.3000000   0.4000000), wk =   0.0480000
        k(   10) = (  -0.1000000   0.6000000  -0.5000000), wk =   0.0480000
        k(   11) = (  -0.2000000  -0.2000000   0.4000000), wk =   0.0240000
        k(   12) = (  -0.2000000   0.7000000  -0.5000000), wk =   0.0480000
        k(   13) = (  -0.2000000   0.6000000  -0.4000000), wk =   0.0240000
        k(   14) = (  -0.3000000   0.7000000  -0.4000000), wk =   0.0240000
        k(   15) = (   0.0000000   0.0000000   0.2000000), wk =   0.0060000
        k(   16) = (   0.0000000  -0.1000000   0.3000000), wk =   0.0240000
        k(   17) = (   0.0000000  -0.2000000   0.4000000), wk =   0.0240000
        k(   18) = (   0.0000000  -0.3000000   0.5000000), wk =   0.0240000
        k(   19) = (   0.0000000   0.6000000  -0.4000000), wk =   0.0120000
        k(   20) = (  -0.1000000  -0.1000000   0.4000000), wk =   0.0240000
        k(   21) = (  -0.1000000  -0.2000000   0.5000000), wk =   0.0480000
        k(   22) = (  -0.1000000   0.7000000  -0.4000000), wk =   0.0480000
        k(   23) = (  -0.2000000   0.2000000   0.2000000), wk =   0.0080000
        k(   24) = (  -0.2000000   0.8000000  -0.4000000), wk =   0.0240000
        k(   25) = (  -0.2000000   0.7000000  -0.3000000), wk =   0.0240000
        k(   26) = (  -0.3000000   0.3000000   0.2000000), wk =   0.0240000
        k(   27) = (   0.6000000  -0.6000000   0.2000000), wk =   0.0240000
        k(   28) = (   0.6000000  -0.7000000   0.3000000), wk =   0.0240000
        k(   29) = (   0.5000000  -0.5000000   0.2000000), wk =   0.0120000
        k(   30) = (   0.5000000  -0.6000000   0.3000000), wk =   0.0480000
        k(   31) = (   0.4000000  -0.6000000   0.4000000), wk =   0.0080000
        k(   32) = (   0.0000000   0.0000000   0.4000000), wk =   0.0060000
        k(   33) = (   0.0000000  -0.1000000   0.5000000), wk =   0.0240000
        k(   34) = (   0.0000000  -0.2000000   0.6000000), wk =   0.0240000
        k(   35) = (   0.0000000   0.7000000  -0.3000000), wk =   0.0120000
        k(   36) = (  -0.1000000  -0.1000000   0.6000000), wk =   0.0240000
        k(   37) = (  -0.1000000   0.8000000  -0.3000000), wk =   0.0480000
        k(   38) = (  -0.2000000   0.8000000  -0.2000000), wk =   0.0080000
        k(   39) = (   0.6000000  -0.6000000   0.4000000), wk =   0.0080000
        k(   40) = (   0.5000000  -0.5000000   0.4000000), wk =   0.0120000
        k(   41) = (   0.0000000   0.0000000   0.6000000), wk =   0.0060000
        k(   42) = (   0.0000000  -0.1000000   0.7000000), wk =   0.0240000
        k(   43) = (   0.0000000   0.8000000  -0.2000000), wk =   0.0120000
        k(   44) = (  -0.1000000   0.9000000  -0.2000000), wk =   0.0240000
        k(   45) = (   0.0000000   0.0000000   0.8000000), wk =   0.0060000
        k(   46) = (   0.0000000   0.9000000  -0.1000000), wk =   0.0120000
        k(   47) = (   0.0000000   0.0000000  -1.0000000), wk =   0.0010000

                       cryst. coord.
        k(    1) = (   0.0000000   0.0000000   0.0000000), wk =   0.0010000
        k(    2) = (   0.0000000   0.0000000   0.1000000), wk =   0.0120000
        k(    3) = (   0.0000000   0.0000000   0.2000000), wk =   0.0120000
        k(    4) = (   0.0000000   0.0000000   0.3000000), wk =   0.0120000
        k(    5) = (   0.0000000   0.0000000   0.4000000), wk =   0.0120000
        k(    6) = (   0.0000000   0.0000000  -0.5000000), wk =   0.0060000
        k(    7) = (   0.0000000   0.1000000   0.2000000), wk =   0.0240000
        k(    8) = (   0.0000000   0.1000000   0.3000000), wk =   0.0480000
        k(    9) = (   0.0000000   0.1000000   0.4000000), wk =   0.0480000
        k(   10) = (   0.0000000   0.1000000  -0.5000000), wk =   0.0480000
        k(   11) = (   0.0000000   0.2000000   0.4000000), wk =   0.0240000
        k(   12) = (  -0.0000000   0.2000000  -0.5000000), wk =   0.0480000
        k(   13) = (   0.0000000   0.2000000  -0.4000000), wk =   0.0240000
        k(   14) = (  -0.0000000   0.3000000  -0.4000000), wk =   0.0240000
        k(   15) = (   0.1000000   0.1000000   0.1000000), wk =   0.0060000
        k(   16) = (   0.1000000   0.1000000   0.2000000), wk =   0.0240000
        k(   17) = (   0.1000000   0.1000000   0.3000000), wk =   0.0240000
        k(   18) = (   0.1000000   0.1000000   0.4000000), wk =   0.0240000
        k(   19) = (   0.1000000   0.1000000  -0.5000000), wk =   0.0120000
        k(   20) = (   0.1000000   0.2000000   0.3000000), wk =   0.0240000
        k(   21) = (   0.1000000   0.2000000   0.4000000), wk =   0.0480000
        k(   22) = (   0.1000000   0.2000000  -0.5000000), wk =   0.0480000
        k(   23) = (   0.1000000   0.3000000   0.1000000), wk =   0.0080000
        k(   24) = (   0.1000000   0.3000000  -0.5000000), wk =   0.0240000
        k(   25) = (   0.1000000   0.3000000  -0.4000000), wk =   0.0240000
        k(   26) = (   0.1000000   0.4000000   0.1000000), wk =   0.0240000
        k(   27) = (   0.1000000  -0.5000000   0.1000000), wk =   0.0240000
        k(   28) = (   0.1000000  -0.5000000   0.2000000), wk =   0.0240000
        k(   29) = (   0.1000000  -0.4000000   0.1000000), wk =   0.0120000
        k(   30) = (   0.1000000  -0.4000000   0.2000000), wk =   0.0480000
        k(   31) = (   0.1000000  -0.3000000   0.3000000), wk =   0.0080000
        k(   32) = (   0.2000000   0.2000000   0.2000000), wk =   0.0060000
        k(   33) = (   0.2000000   0.2000000   0.3000000), wk =   0.0240000
        k(   34) = (   0.2000000   0.2000000   0.4000000), wk =   0.0240000
        k(   35) = (   0.2000000   0.2000000  -0.5000000), wk =   0.0120000
        k(   36) = (   0.2000000   0.3000000   0.4000000), wk =   0.0240000
        k(   37) = (   0.2000000   0.3000000  -0.5000000), wk =   0.0480000
        k(   38) = (   0.2000000   0.4000000  -0.4000000), wk =   0.0080000
        k(   39) = (   0.2000000  -0.4000000   0.2000000), wk =   0.0080000
        k(   40) = (   0.2000000  -0.3000000   0.2000000), wk =   0.0120000
        k(   41) = (   0.3000000   0.3000000   0.3000000), wk =   0.0060000
        k(   42) = (   0.3000000   0.3000000   0.4000000), wk =   0.0240000
        k(   43) = (   0.3000000   0.3000000  -0.5000000), wk =   0.0120000
        k(   44) = (   0.3000000   0.4000000  -0.5000000), wk =   0.0240000
        k(   45) = (   0.4000000   0.4000000   0.4000000), wk =   0.0060000
        k(   46) = (   0.4000000   0.4000000  -0.5000000), wk =   0.0120000
        k(   47) = (  -0.5000000  -0.5000000  -0.5000000), wk =   0.0010000

     Dense  grid:    10425 G-vectors     FFT dimensions: (  30,  30,  30)

     Smooth grid:     2659 G-vectors     FFT dimensions: (  20,  20,  20)

     Dynamical RAM for                 wfc:       0.10 MB

     Dynamical RAM for     wfc (w. buffer):       9.54 MB

     Dynamical RAM for           str. fact:       0.16 MB

     Dynamical RAM for           local pot:       0.00 MB

     Dynamical RAM for          nlocal pot:       0.09 MB

     Dynamical RAM for                qrad:       1.61 MB

     Dynamical RAM for          rho,v,vnew:       2.19 MB

     Dynamical RAM for               rhoin:       0.73 MB

     Dynamical RAM for            rho*nmix:       5.09 MB

     Dynamical RAM for           G-vectors:       0.62 MB

     Dynamical RAM for          h,s,v(r/c):       0.07 MB

     Dynamical RAM for          <psi|beta>:       0.01 MB

     Dynamical RAM for                 psi:       0.20 MB

     Dynamical RAM for                hpsi:       0.20 MB

     Dynamical RAM for                spsi:       0.20 MB

     Dynamical RAM for      wfcinit/wfcrot:       0.21 MB

     Dynamical RAM for           addusdens:      29.91 MB

     Dynamical RAM for          addusforce:      29.91 MB

     Dynamical RAM for         addusstress:      32.21 MB

     Estimated static dynamical RAM per process >      16.48 MB

     Estimated max dynamical RAM per process >      53.79 MB

     Check: negative core charge=   -0.000042
     Generating pointlists ...
     new r_m :   0.3572 (alat units)  1.9149 (a.u.) for type    1

     Initial potential from superposition of free atoms

     starting charge      15.0000, renormalised to      16.0000
     Starting wfcs are   13 randomized atomic wfcs +    7 random wfcs

     total cpu time spent up to now is        1.8 secs

     Self-consistent Calculation

     iteration #  1     ecut=    40.00 Ry     beta= 0.50
     Davidson diagonalization with overlap

---- Real-time Memory Report at c_bands before calling an iterative solver
            57 MiB given to the printing process from OS
             0 MiB allocation reported by mallinfo(arena+hblkhd)
           309 MiB available memory on the node where the printing process lives
------------------
     ethr =  1.00E-02,  avg # of iterations =  5.4

     total cpu time spent up to now is        5.7 secs

     total energy              =    -249.24472217 Ry
     estimated scf accuracy    <       2.51920342 Ry

     total magnetization       =     0.00 Bohr mag/cell
     absolute magnetization    =     0.00 Bohr mag/cell

     iteration #  2     ecut=    40.00 Ry     beta= 0.50
     Davidson diagonalization with overlap

---- Real-time Memory Report at c_bands before calling an iterative solver
            70 MiB given to the printing process from OS
             0 MiB allocation reported by mallinfo(arena+hblkhd)
           278 MiB available memory on the node where the printing process lives
------------------
     ethr =  1.00E-02,  avg # of iterations =  2.0

     total cpu time spent up to now is        8.6 secs

     total energy              =    -249.87690551 Ry
     estimated scf accuracy    <       2.35990313 Ry

     total magnetization       =    -0.00 Bohr mag/cell
     absolute magnetization    =     0.00 Bohr mag/cell

     iteration #  3     ecut=    40.00 Ry     beta= 0.50
     Davidson diagonalization with overlap

---- Real-time Memory Report at c_bands before calling an iterative solver
            70 MiB given to the printing process from OS
             0 MiB allocation reported by mallinfo(arena+hblkhd)
           278 MiB available memory on the node where the printing process lives
------------------
     ethr =  1.00E-02,  avg # of iterations =  1.0

     total cpu time spent up to now is       10.6 secs

     total energy              =    -250.30600294 Ry
     estimated scf accuracy    <       0.01027370 Ry

     total magnetization       =     0.00 Bohr mag/cell
     absolute magnetization    =     0.00 Bohr mag/cell

     iteration #  4     ecut=    40.00 Ry     beta= 0.50
     Davidson diagonalization with overlap

---- Real-time Memory Report at c_bands before calling an iterative solver
            71 MiB given to the printing process from OS
             0 MiB allocation reported by mallinfo(arena+hblkhd)
           278 MiB available memory on the node where the printing process lives
------------------
     ethr =  6.42E-05,  avg # of iterations =  1.8

     total cpu time spent up to now is       12.8 secs

     total energy              =    -250.30508392 Ry
     estimated scf accuracy    <       0.00560618 Ry

     total magnetization       =     0.00 Bohr mag/cell
     absolute magnetization    =     0.00 Bohr mag/cell

     iteration #  5     ecut=    40.00 Ry     beta= 0.50
     Davidson diagonalization with overlap

---- Real-time Memory Report at c_bands before calling an iterative solver
            71 MiB given to the printing process from OS
             0 MiB allocation reported by mallinfo(arena+hblkhd)
           278 MiB available memory on the node where the printing process lives
------------------
     ethr =  3.50E-05,  avg # of iterations =  1.1

     total cpu time spent up to now is       14.8 secs

     total energy              =    -250.30503253 Ry
     estimated scf accuracy    <       0.00091999 Ry

     total magnetization       =    -0.00 Bohr mag/cell
     absolute magnetization    =     0.00 Bohr mag/cell

     iteration #  6     ecut=    40.00 Ry     beta= 0.50
     Davidson diagonalization with overlap

---- Real-time Memory Report at c_bands before calling an iterative solver
            71 MiB given to the printing process from OS
             0 MiB allocation reported by mallinfo(arena+hblkhd)
           277 MiB available memory on the node where the printing process lives
------------------
     ethr =  5.75E-06,  avg # of iterations =  1.5

     total cpu time spent up to now is       16.9 secs

     total energy              =    -250.30517138 Ry
     estimated scf accuracy    <       0.00000720 Ry

     total magnetization       =    -0.00 Bohr mag/cell
     absolute magnetization    =     0.00 Bohr mag/cell

     iteration #  7     ecut=    40.00 Ry     beta= 0.50
     Davidson diagonalization with overlap

---- Real-time Memory Report at c_bands before calling an iterative solver
            71 MiB given to the printing process from OS
             0 MiB allocation reported by mallinfo(arena+hblkhd)
           277 MiB available memory on the node where the printing process lives
------------------
     ethr =  4.50E-08,  avg # of iterations =  1.7

     total cpu time spent up to now is       19.0 secs

     total energy              =    -250.30517265 Ry
     estimated scf accuracy    <       0.00000181 Ry

     total magnetization       =    -0.00 Bohr mag/cell
     absolute magnetization    =     0.00 Bohr mag/cell

     iteration #  8     ecut=    40.00 Ry     beta= 0.50
     Davidson diagonalization with overlap

---- Real-time Memory Report at c_bands before calling an iterative solver
            72 MiB given to the printing process from OS
             0 MiB allocation reported by mallinfo(arena+hblkhd)
           277 MiB available memory on the node where the printing process lives
------------------
     ethr =  1.13E-08,  avg # of iterations =  1.4

     total cpu time spent up to now is       21.1 secs

     total energy              =    -250.30517283 Ry
     estimated scf accuracy    <       0.00000011 Ry

     total magnetization       =    -0.00 Bohr mag/cell
     absolute magnetization    =     0.00 Bohr mag/cell

     iteration #  9     ecut=    40.00 Ry     beta= 0.50
     Davidson diagonalization with overlap

---- Real-time Memory Report at c_bands before calling an iterative solver
            72 MiB given to the printing process from OS
             0 MiB allocation reported by mallinfo(arena+hblkhd)
           277 MiB available memory on the node where the printing process lives
------------------
     ethr =  6.69E-10,  avg # of iterations =  1.5

     total cpu time spent up to now is       23.2 secs

     total energy              =    -250.30517284 Ry
     estimated scf accuracy    <          2.0E-09 Ry

     total magnetization       =    -0.00 Bohr mag/cell
     absolute magnetization    =     0.00 Bohr mag/cell

     iteration # 10     ecut=    40.00 Ry     beta= 0.50
     Davidson diagonalization with overlap

---- Real-time Memory Report at c_bands before calling an iterative solver
            72 MiB given to the printing process from OS
             0 MiB allocation reported by mallinfo(arena+hblkhd)
           277 MiB available memory on the node where the printing process lives
------------------
     ethr =  1.23E-11,  avg # of iterations =  1.9

     total cpu time spent up to now is       25.4 secs

     total energy              =    -250.30517285 Ry
     estimated scf accuracy    <          6.5E-09 Ry

     total magnetization       =    -0.00 Bohr mag/cell
     absolute magnetization    =     0.00 Bohr mag/cell

     iteration # 11     ecut=    40.00 Ry     beta= 0.50
     Davidson diagonalization with overlap

---- Real-time Memory Report at c_bands before calling an iterative solver
            72 MiB given to the printing process from OS
             0 MiB allocation reported by mallinfo(arena+hblkhd)
           277 MiB available memory on the node where the printing process lives
------------------
     ethr =  1.23E-11,  avg # of iterations =  1.4

     total cpu time spent up to now is       27.4 secs

     total energy              =    -250.30517285 Ry
     estimated scf accuracy    <          1.2E-09 Ry

     total magnetization       =    -0.00 Bohr mag/cell
     absolute magnetization    =     0.00 Bohr mag/cell

     iteration # 12     ecut=    40.00 Ry     beta= 0.50
     Davidson diagonalization with overlap

---- Real-time Memory Report at c_bands before calling an iterative solver
            72 MiB given to the printing process from OS
             0 MiB allocation reported by mallinfo(arena+hblkhd)
           277 MiB available memory on the node where the printing process lives
------------------
     ethr =  7.48E-12,  avg # of iterations =  1.6

     Magnetic moment per site  (integrated on atomic sphere of radius R)
     atom   1 (R=0.357)  charge= 14.3915  magn= -0.0000

     total cpu time spent up to now is       29.4 secs

     End of self-consistent calculation

 ------ SPIN UP ------------


          k = 0.0000 0.0000 0.0000 (   321 PWs)   bands (ev):

   -68.9223 -34.7335 -34.7335 -34.7335   9.6735  16.5939  16.5939  16.5939
    18.1622  18.1622  42.3330  42.3330  42.3330  48.0046  48.0046  50.3988
    50.3988  51.2142  51.2144  51.2144

     occupation numbers 
     1.0000   1.0000   1.0000   1.0000   1.0000   1.0000   1.0000   1.0000
     0.6722   0.6722  -0.0000  -0.0000  -0.0000  -0.0000  -0.0000  -0.0000
    -0.0000  -0.0000  -0.0000  -0.0000

          k = 0.0000-0.1000 0.1000 (   329 PWs)   bands (ev):

   -68.9146 -34.7747 -34.7471 -34.7335  10.0847  16.4740  16.5730  16.8211
    18.0471  18.1721  40.3071  41.8128  42.2079  47.0037  47.1709  47.5572
    49.4827  51.3214  53.7825  54.5904

     occupation numbers 
     1.0000   1.0000   1.0000   1.0000   1.0000   1.0000   1.0000   1.0000
     1.0299   0.6138  -0.0000  -0.0000  -0.0000  -0.0000  -0.0000  -0.0000
    -0.0000  -0.0000  -0.0000  -0.0000

          k = 0.0000-0.2000 0.2000 (   342 PWs)   bands (ev):

   -68.8947 -34.8818 -34.7827 -34.7334  11.2319  16.1698  16.4465  17.4490
    17.9079  18.2083  36.2220  40.0186  41.9605  43.8365  45.9390  47.6213
    51.2890  53.8957  58.0701  58.8976

     occupation numbers 
     1.0000   1.0000   1.0000   1.0000   1.0000   1.0000   1.0000   1.0000
     1.0062   0.3909  -0.0000  -0.0000  -0.0000  -0.0000  -0.0000  -0.0000
    -0.0000  -0.0000  -0.0000  -0.0000

          k = 0.0000-0.3000 0.3000 (   328 PWs)   bands (ev):

   -68.8699 -35.0125 -34.8264 -34.7334  12.7217  15.8111  16.4437  17.9740
    18.2746  18.3060  31.7710  38.0024  40.9953  41.7494  45.3689  49.9610
    52.0166  57.7956  62.5156  62.9193

     occupation numbers 
     1.0000   1.0000   1.0000   1.0000   1.0000   1.0000   1.0000   1.0235
     0.0723  -0.0014  -0.0000  -0.0000  -0.0000  -0.0000  -0.0000  -0.0000
    -0.0000  -0.0000  -0.0000  -0.0000

          k = 0.0000-0.4000 0.4000 (   324 PWs)   bands (ev):

   -68.8498 -35.1171 -34.8617 -34.7334  13.5869  15.5336  17.4445  18.1356
    18.3470  19.0860  27.8462  36.5918  39.0055  41.6228  45.3530  51.8588
    53.2957  61.9664  62.6887  64.4199

     occupation numbers 
     1.0000   1.0000   1.0000   1.0000   1.0000   1.0000   1.0000   0.8128
    -0.0345  -0.0000  -0.0000  -0.0000  -0.0000  -0.0000  -0.0000  -0.0000
    -0.0000  -0.0000  -0.0000  -0.0000

          k = 0.0000 0.5000-0.5000 (   328 PWs)   bands (ev):

   -68.8421 -35.1568 -34.8751 -34.7334  13.7172  15.4303  18.1345  18.3794
    18.5806  19.4106  25.9296  36.0918  38.2746  41.5816  45.4270  51.6585
    56.6084  58.2474  64.4500  66.6881

     occupation numbers 
     1.0000   1.0000   1.0000   1.0000   1.0000   1.0000   0.8180  -0.0322
    -0.0002  -0.0000  -0.0000  -0.0000  -0.0000  -0.0000  -0.0000  -0.0000
    -0.0000  -0.0000  -0.0000  -0.0000

          k =-0.1000-0.1000 0.2000 (   339 PWs)   bands (ev):

   -68.9008 -34.8485 -34.7620 -34.7434  10.8689  16.3240  16.3963  17.2921
    17.8835  18.2278  38.0669  39.2569  42.8265  43.6967  46.6714  48.4802
    51.4561  51.5243  56.2348  57.2016

     occupation numbers 
     1.0000   1.0000   1.0000   1.0000   1.0000   1.0000   1.0000   1.0000
     1.0032   0.2779  -0.0000  -0.0000  -0.0000  -0.0000  -0.0000  -0.0000
    -0.0000  -0.0000  -0.0000  -0.0000

          k =-0.1000-0.2000 0.3000 (   332 PWs)   bands (ev):

   -68.8785 -34.9603 -34.8046 -34.7475  12.2436  15.9935  16.1921  17.8252
    18.1129  18.3329  34.1271  37.0034  40.8472  42.9542  47.3100  48.3362
    53.5559  54.3301  58.6376  61.4692

     occupation numbers 
     1.0000   1.0000   1.0000   1.0000   1.0000   1.0000   1.0000   1.0005
     0.9063  -0.0293  -0.0000  -0.0000  -0.0000  -0.0000  -0.0000  -0.0000
    -0.0000  -0.0000  -0.0000  -0.0000

          k =-0.1000-0.3000 0.4000 (   333 PWs)   bands (ev):

   -68.8560 -35.0685 -34.8525 -34.7485  13.5305  15.6687  16.4164  17.9767
    18.4094  19.1729  29.8419  35.4708  38.7460  42.8227  47.4054  49.4605
    54.6764  58.7542  61.2203  64.2095

     occupation numbers 
     1.0000   1.0000   1.0000   1.0000   1.0000   1.0000   1.0000   1.0244
    -0.0227  -0.0000  -0.0000  -0.0000  -0.0000  -0.0000  -0.0000  -0.0000
    -0.0000  -0.0000  -0.0000  -0.0000

          k =-0.1000 0.6000-0.5000 (   329 PWs)   bands (ev):

   -68.8421 -35.1343 -34.8826 -34.7488  13.9098  15.4862  17.2445  18.1014
    18.6254  20.2688  26.5374  34.6111  37.5673  42.7346  47.4319  50.3256
    56.4338  59.3576  64.0027  65.2427

     occupation numbers 
     1.0000   1.0000   1.0000   1.0000   1.0000   1.0000   1.0000   0.9434
    -0.0000  -0.0000  -0.0000  -0.0000  -0.0000  -0.0000  -0.0000  -0.0000
    -0.0000  -0.0000  -0.0000  -0.0000

          k =-0.2000-0.2000 0.4000 (   333 PWs)   bands (ev):

   -68.8584 -35.0387 -34.8486 -34.7660  13.5780  15.7183  15.9636  17.8455
    18.4179  19.3169  32.1192  32.9270  38.9162  43.5570  47.3356  51.5947
    54.0729  57.5692  58.5658  63.9622

     occupation numbers 
     1.0000   1.0000   1.0000   1.0000   1.0000   1.0000   1.0000   1.0010
    -0.0198  -0.0000  -0.0000  -0.0000  -0.0000  -0.0000  -0.0000  -0.0000
    -0.0000  -0.0000  -0.0000  -0.0000

          k =-0.2000 0.7000-0.5000 (   328 PWs)   bands (ev):

   -68.8422 -35.0888 -34.9047 -34.7732  14.3893  15.5215  16.1701  18.0187
    18.5091  20.9534  28.3787  31.3909  37.6889  43.9041  47.9063  52.1930
    56.2321  58.7436  60.8647  65.1969

     occupation numbers 
     1.0000   1.0000   1.0000   1.0000   1.0000   1.0000   1.0000   1.0352
    -0.0023  -0.0000  -0.0000  -0.0000  -0.0000  -0.0000  -0.0000  -0.0000
    -0.0000  -0.0000  -0.0000  -0.0000

          k =-0.2000 0.6000-0.4000 (   322 PWs)   bands (ev):

   -68.8360 -35.1045 -34.9304 -34.7749  14.4726  15.4977  16.4323  18.1141
    18.5867  22.3717  26.0508  30.9409  37.2553  44.0128  48.3769  51.8586
    56.1925  61.1975  63.8501  64.6604

     occupation numbers 
     1.0000   1.0000   1.0000   1.0000   1.0000   1.0000   1.0000   0.9022
    -0.0002  -0.0000  -0.0000  -0.0000  -0.0000  -0.0000  -0.0000  -0.0000
    -0.0000  -0.0000  -0.0000  -0.0000

          k =-0.3000 0.7000-0.4000 (   322 PWs)   bands (ev):

   -68.8336 -35.0625 -34.9795 -34.7848  14.9524  15.4721  15.8909  18.2041
    18.4561  23.4794  26.8244  28.3076  37.2388  45.1703  46.9029  54.5028
    57.7046  58.5666  63.8323  64.6280

     occupation numbers 
     1.0000   1.0000   1.0000   1.0000   1.0000   1.0000   1.0000   0.4161
    -0.0093  -0.0000  -0.0000  -0.0000  -0.0000  -0.0000  -0.0000  -0.0000
    -0.0000  -0.0000  -0.0000  -0.0000

          k = 0.0000 0.0000 0.2000 (   329 PWs)   bands (ev):

   -68.9072 -34.7862 -34.7609 -34.7609  10.4852  16.5901  16.5901  16.8238
    17.7556  18.3145  39.4766  41.4717  41.4717  43.8758  47.5001  47.5001
    50.5717  52.8022  54.2568  56.6810

     occupation numbers 
     1.0000   1.0000   1.0000   1.0000   1.0000   1.0000   1.0000   1.0000
     1.0000  -0.0133  -0.0000  -0.0000  -0.0000  -0.0000  -0.0000  -0.0000
    -0.0000  -0.0000  -0.0000  -0.0000

          k = 0.0000-0.1000 0.3000 (   339 PWs)   bands (ev):

   -68.8877 -34.8814 -34.7970 -34.7668  11.5972  16.3752  16.5066  17.3917
    17.4693  18.4452  36.4318  39.2824  39.9446  43.4108  46.2879  47.3848
    52.6277  55.6181  56.9561  60.2032

     occupation numbers 
     1.0000   1.0000   1.0000   1.0000   1.0000   1.0000   1.0000   1.0000
     1.0000  -0.0118  -0.0000  -0.0000  -0.0000  -0.0000  -0.0000  -0.0000
    -0.0000  -0.0000  -0.0000  -0.0000

          k = 0.0000-0.2000 0.4000 (   335 PWs)   bands (ev):

   -68.8636 -35.0067 -34.8414 -34.7652  13.0307  16.0472  16.2809  17.6433
    18.2556  18.6327  32.0482  37.4958  38.2094  44.3719  44.9464  47.6620
    56.5809  56.6059  60.4457  62.3866

     occupation numbers 
     1.0000   1.0000   1.0000   1.0000   1.0000   1.0000   1.0000   1.0000
     0.1420  -0.0000  -0.0000  -0.0000  -0.0000  -0.0000  -0.0000  -0.0000
    -0.0000  -0.0000  -0.0000  -0.0000

          k = 0.0000-0.3000 0.5000 (   327 PWs)   bands (ev):

   -68.8440 -35.1072 -34.8771 -34.7635  13.8607  15.7891  16.5748  17.8971
    19.0505  19.3723  28.0373  36.3165  36.7634  44.2011  45.6370  47.9222
    55.7123  60.8329  61.5456  66.8432

     occupation numbers 
     1.0000   1.0000   1.0000   1.0000   1.0000   1.0000   1.0000   1.0047
    -0.0000  -0.0000  -0.0000  -0.0000  -0.0000  -0.0000  -0.0000  -0.0000
    -0.0000  -0.0000  -0.0000  -0.0000

          k = 0.0000 0.6000-0.4000 (   330 PWs)   bands (ev):

   -68.8365 -35.1454 -34.8907 -34.7629  13.9745  15.6926  16.8966  17.9035
    19.3832  20.3529  25.9663  35.8988  36.1890  43.9724  46.4662  47.7790
    55.0155  61.2838  66.6353  67.0189

     occupation numbers 
     1.0000   1.0000   1.0000   1.0000   1.0000   1.0000   1.0000   1.0055
    -0.0000  -0.0000  -0.0000  -0.0000  -0.0000  -0.0000  -0.0000  -0.0000
    -0.0000  -0.0000  -0.0000  -0.0000

          k =-0.1000-0.1000 0.4000 (   327 PWs)   bands (ev):

   -68.8665 -34.9650 -34.8383 -34.7886  12.8457  16.1558  16.3872  17.3286
    18.0209  18.7102  34.3462  35.2929  40.1566  41.6133  45.8684  50.1270
    53.2343  58.1825  59.3908  61.0950

     occupation numbers 
     1.0000   1.0000   1.0000   1.0000   1.0000   1.0000   1.0000   1.0000
     1.0354  -0.0000  -0.0000  -0.0000  -0.0000  -0.0000  -0.0000  -0.0000
    -0.0000  -0.0000  -0.0000  -0.0000

          k =-0.1000-0.2000 0.5000 (   327 PWs)   bands (ev):

   -68.8452 -35.0570 -34.8883 -34.7921  14.0121  15.7773  16.2672  17.6195
    18.5812  19.6644  30.3379  33.3800  39.0859  42.2647  45.5009  50.8057
    55.1442  57.1058  62.3672  64.9155

     occupation numbers 
     1.0000   1.0000   1.0000   1.0000   1.0000   1.0000   1.0000   1.0000
    -0.0002  -0.0000  -0.0000  -0.0000  -0.0000  -0.0000  -0.0000  -0.0000
    -0.0000  -0.0000  -0.0000  -0.0000

          k =-0.1000 0.7000-0.4000 (   327 PWs)   bands (ev):

   -68.8320 -35.1143 -34.9207 -34.7916  14.3634  15.8468  16.1797  17.8050
    18.9934  21.4165  26.7723  32.4887  38.1508  43.4961  45.4193  50.0427
    53.5543  62.0929  64.4949  67.7322

     occupation numbers 
     1.0000   1.0000   1.0000   1.0000   1.0000   1.0000   1.0000   1.0002
    -0.0000  -0.0000  -0.0000  -0.0000  -0.0000  -0.0000  -0.0000  -0.0000
    -0.0000  -0.0000  -0.0000  -0.0000

          k =-0.2000 0.2000 0.2000 (   336 PWs)   bands (ev):

   -68.8841 -34.9442 -34.7648 -34.7648  11.9488  16.0173  16.0173  18.0969
    18.0969  18.1374  36.1676  36.1676  39.2478  44.5586  50.1936  50.1936
    51.3357  51.3357  55.9228  62.6397

     occupation numbers 
     1.0000   1.0000   1.0000   1.0000   1.0000   1.0000   1.0000   0.9558
     0.9558   0.8043  -0.0000  -0.0000  -0.0000  -0.0000  -0.0000  -0.0000
    -0.0000  -0.0000  -0.0000  -0.0000

          k =-0.2000 0.8000-0.4000 (   323 PWs)   bands (ev):

   -68.8303 -35.0799 -34.9553 -34.8021  14.8200  15.3609  16.1460  17.8906
    18.6641  21.7899  28.7306  29.5781  40.7988  40.9683  44.7263  52.0695
    55.9199  56.9342  66.2356  67.8090

     occupation numbers 
     1.0000   1.0000   1.0000   1.0000   1.0000   1.0000   1.0000   1.0039
    -0.0000  -0.0000  -0.0000  -0.0000  -0.0000  -0.0000  -0.0000  -0.0000
    -0.0000  -0.0000  -0.0000  -0.0000

          k =-0.2000 0.7000-0.3000 (   324 PWs)   bands (ev):

   -68.8246 -35.0776 -34.9940 -34.8038  14.9900  15.6065  15.7363  18.1181
    18.6790  23.9191  26.1694  28.8541  40.3860  42.5750  43.5101  50.9948
    56.3323  61.5934  62.6619  68.5732

     occupation numbers 
     1.0000   1.0000   1.0000   1.0000   1.0000   1.0000   1.0000   0.8876
    -0.0000  -0.0000  -0.0000  -0.0000  -0.0000  -0.0000  -0.0000  -0.0000
    -0.0000  -0.0000  -0.0000  -0.0000

          k =-0.3000 0.3000 0.2000 (   335 PWs)   bands (ev):

   -68.8635 -35.0341 -34.8187 -34.7683  13.3927  15.6634  15.8172  18.0964
    18.2613  19.2638  32.1655  34.5784  36.4674  45.4668  50.1566  50.9543
    53.0565  55.2526  57.6330  65.9176

     occupation numbers 
     1.0000   1.0000   1.0000   1.0000   1.0000   1.0000   1.0000   0.9570
     0.1191  -0.0000  -0.0000  -0.0000  -0.0000  -0.0000  -0.0000  -0.0000
    -0.0000  -0.0000  -0.0000  -0.0000

          k = 0.6000-0.6000 0.2000 (   322 PWs)   bands (ev):

   -68.8467 -35.0944 -34.8742 -34.7711  14.1961  15.4257  16.3690  18.1837
    18.3599  20.6614  28.1832  33.5195  34.9563  45.4642  49.9899  52.8211
    53.7101  60.1129  61.5960  62.5783

     occupation numbers 
     1.0000   1.0000   1.0000   1.0000   1.0000   1.0000   1.0000   0.5428
    -0.0354  -0.0000  -0.0000  -0.0000  -0.0000  -0.0000  -0.0000  -0.0000
    -0.0000  -0.0000  -0.0000  -0.0000

          k = 0.6000-0.7000 0.3000 (   328 PWs)   bands (ev):

   -68.8484 -35.0705 -34.8613 -34.7980  14.5609  15.4539  15.6229  18.1956
    18.3600  20.8288  30.4158  31.1505  34.2133  47.3841  51.0277  52.9882
    55.0393  57.4222  58.6682  64.1678

     occupation numbers 
     1.0000   1.0000   1.0000   1.0000   1.0000   1.0000   1.0000   0.4685
    -0.0354  -0.0000  -0.0000  -0.0000  -0.0000  -0.0000  -0.0000  -0.0000
    -0.0000  -0.0000  -0.0000  -0.0000

          k = 0.5000-0.5000 0.2000 (   326 PWs)   bands (ev):

   -68.8403 -35.1148 -34.8977 -34.7722  14.2602  15.3428  16.9493  18.2288
    18.3934  21.7746  26.0199  33.1461  34.4310  45.3810  50.0357  52.4994
    56.4779  59.3345  63.5503  65.3384

     occupation numbers 
     1.0000   1.0000   1.0000   1.0000   1.0000   1.0000   1.0000   0.2722
    -0.0281  -0.0000  -0.0000  -0.0000  -0.0000  -0.0000  -0.0000  -0.0000
    -0.0000  -0.0000  -0.0000  -0.0000

          k = 0.5000-0.6000 0.3000 (   332 PWs)   bands (ev):

   -68.8392 -35.0677 -34.9215 -34.8077  14.8130  15.3566  16.0812  18.2831
    18.4110  22.8631  27.0582  30.0675  33.3892  47.9945  51.5593  53.9688
    56.8830  60.1016  61.5527  62.8740

     occupation numbers 
     1.0000   1.0000   1.0000   1.0000   1.0000   1.0000   1.0000   0.0472
    -0.0221  -0.0000  -0.0000  -0.0000  -0.0000  -0.0000  -0.0000  -0.0000
    -0.0000  -0.0000  -0.0000  -0.0000

          k = 0.4000-0.6000 0.4000 (   324 PWs)   bands (ev):

   -68.8363 -34.9990 -34.9990 -34.8211  15.0215  15.6611  15.6611  18.3750
    18.3750  25.5646  25.5646  27.8508  33.0623  50.0365  50.0365  56.6171
    59.2326  59.2326  62.0773  62.2639

     occupation numbers 
     1.0000   1.0000   1.0000   1.0000   1.0000   1.0000   1.0000  -0.0333
    -0.0333  -0.0000  -0.0000  -0.0000  -0.0000  -0.0000  -0.0000  -0.0000
    -0.0000  -0.0000  -0.0000  -0.0000

          k = 0.0000 0.0000 0.4000 (   329 PWs)   bands (ev):

   -68.8696 -34.8999 -34.8344 -34.8344  12.5802  16.6917  16.7601  16.7601
    17.4376  18.7403  36.5865  37.5485  37.5485  39.4160  49.5669  49.5669
    51.1945  56.4887  60.2613  61.3029

     occupation numbers 
     1.0000   1.0000   1.0000   1.0000   1.0000   1.0000   1.0000   1.0000
     1.0000  -0.0000  -0.0000  -0.0000  -0.0000  -0.0000  -0.0000  -0.0000
    -0.0000  -0.0000  -0.0000  -0.0000

          k = 0.0000-0.1000 0.5000 (   328 PWs)   bands (ev):

   -68.8471 -34.9929 -34.8804 -34.8465  13.7636  15.9475  16.6883  17.2196
    18.1477  19.2793  32.8452  35.4550  36.4791  39.7154  48.9254  50.5262
    54.5668  54.7726  60.4492  64.5119

     occupation numbers 
     1.0000   1.0000   1.0000   1.0000   1.0000   1.0000   1.0000   1.0000
     0.7523  -0.0000  -0.0000  -0.0000  -0.0000  -0.0000  -0.0000  -0.0000
    -0.0000  -0.0000  -0.0000  -0.0000

          k = 0.0000-0.2000 0.6000 (   325 PWs)   bands (ev):

   -68.8288 -35.0815 -34.9174 -34.8419  14.4306  15.6024  16.5097  17.5310
    18.9595  20.7900  28.6450  33.9138  35.7736  41.5553  48.0392  49.1209
    52.4850  59.8002  65.0355  66.8395

     occupation numbers 
     1.0000   1.0000   1.0000   1.0000   1.0000   1.0000   1.0000   1.0000
    -0.0000  -0.0000  -0.0000  -0.0000  -0.0000  -0.0000  -0.0000  -0.0000
    -0.0000  -0.0000  -0.0000  -0.0000

          k = 0.0000 0.7000-0.3000 (   328 PWs)   bands (ev):

   -68.8219 -35.1157 -34.9315 -34.8396  14.4900  15.6472  16.4369  17.5616
    19.3117  22.4508  26.1345  33.3236  35.5125  42.9469  47.4027  47.7369
    52.1796  64.4258  66.5373  68.1084

     occupation numbers 
     1.0000   1.0000   1.0000   1.0000   1.0000   1.0000   1.0000   1.0000
    -0.0000  -0.0000  -0.0000  -0.0000  -0.0000  -0.0000  -0.0000  -0.0000
    -0.0000  -0.0000  -0.0000  -0.0000

          k =-0.1000-0.1000 0.6000 (   327 PWs)   bands (ev):

   -68.8276 -35.0448 -34.9358 -34.8658  14.5124  15.3712  16.7936  17.5519
    18.6115  20.6770  31.0847  31.5410  37.3820  38.9638  48.1515  50.6712
    54.6407  55.8254  63.4738  68.4330

     occupation numbers 
     1.0000   1.0000   1.0000   1.0000   1.0000   1.0000   1.0000   1.0000
    -0.0001  -0.0000  -0.0000  -0.0000  -0.0000  -0.0000  -0.0000  -0.0000
    -0.0000  -0.0000  -0.0000  -0.0000

          k =-0.1000 0.8000-0.3000 (   327 PWs)   bands (ev):

   -68.8156 -35.0826 -34.9762 -34.8653  14.7550  15.1567  16.6008  17.9028
    18.9999  23.0993  27.3852  30.3807  37.2941  40.4516  45.7781  49.2987
    55.1793  60.4893  66.5614  68.7599

     occupation numbers 
     1.0000   1.0000   1.0000   1.0000   1.0000   1.0000   1.0000   1.0054
    -0.0000  -0.0000  -0.0000  -0.0000  -0.0000  -0.0000  -0.0000  -0.0000
    -0.0000  -0.0000  -0.0000  -0.0000

          k =-0.2000 0.8000-0.2000 (   324 PWs)   bands (ev):

   -68.8105 -35.0442 -35.0442 -34.8674  14.9420  14.9420  16.4512  18.6072
    18.6072  25.9805  25.9805  27.8806  39.3234  39.3234  43.9854  49.1596
    59.4337  61.2848  61.2848  72.3982

     occupation numbers 
     1.0000   1.0000   1.0000   1.0000   1.0000   1.0000   1.0000  -0.0001
    -0.0001  -0.0000  -0.0000  -0.0000  -0.0000  -0.0000  -0.0000  -0.0000
    -0.0000  -0.0000  -0.0000  -0.0000

          k = 0.6000-0.6000 0.4000 (   333 PWs)   bands (ev):

   -68.8404 -35.0491 -34.8716 -34.8716  15.3390  15.3390  15.4460  18.3693
    18.3693  22.9165  29.3467  29.3467  30.6375  51.2239  53.6432  53.6432
    56.1096  59.4496  59.4496  64.0019

     occupation numbers 
     1.0000   1.0000   1.0000   1.0000   1.0000   1.0000   1.0000  -0.0344
    -0.0344  -0.0000  -0.0000  -0.0000  -0.0000  -0.0000  -0.0000  -0.0000
    -0.0000  -0.0000  -0.0000  -0.0000

          k = 0.5000-0.5000 0.4000 (   328 PWs)   bands (ev):

   -68.8373 -35.0064 -34.9343 -34.8755  15.2633  15.3120  15.7611  18.3907
    18.4160  25.1216  26.6320  28.9825  29.9939  52.2507  54.9227  55.8265
    56.2480  58.4676  60.8110  63.2844

     occupation numbers 
     1.0000   1.0000   1.0000   1.0000   1.0000   1.0000   1.0000  -0.0289
    -0.0205  -0.0000  -0.0000  -0.0000  -0.0000  -0.0000  -0.0000  -0.0000
    -0.0000  -0.0000  -0.0000  -0.0000

          k = 0.0000 0.0000 0.6000 (   321 PWs)   bands (ev):

   -68.8266 -34.9933 -34.9283 -34.9283  14.3628  15.4047  17.3961  17.3961
    18.2205  20.3324  33.1133  33.1133  34.9705  36.9630  49.8044  52.5041
    54.1801  54.1801  60.3071  70.9668

     occupation numbers 
     1.0000   1.0000   1.0000   1.0000   1.0000   1.0000   1.0000   1.0000
     0.3185  -0.0000  -0.0000  -0.0000  -0.0000  -0.0000  -0.0000  -0.0000
    -0.0000  -0.0000  -0.0000  -0.0000

          k = 0.0000-0.1000 0.7000 (   328 PWs)   bands (ev):

   -68.8100 -35.0500 -34.9669 -34.9374  14.5698  14.8875  17.5370  17.7943
    18.8570  22.3614  29.5631  31.4059  35.1158  37.5935  45.8481  51.9998
    55.5374  58.6846  63.6192  70.6950

     occupation numbers 
     1.0000   1.0000   1.0000   1.0000   1.0000   1.0000   1.0000   1.0002
    -0.0000  -0.0000  -0.0000  -0.0000  -0.0000  -0.0000  -0.0000  -0.0000
    -0.0000  -0.0000  -0.0000  -0.0000

          k = 0.0000 0.8000-0.2000 (   328 PWs)   bands (ev):

   -68.8037 -35.0788 -34.9816 -34.9336  14.5507  14.7486  17.5182  17.9160
    19.2241  24.6866  26.5841  30.7481  35.0857  38.7968  43.7866  51.6897
    55.6443  62.7012  66.4784  67.9571

     occupation numbers 
     1.0000   1.0000   1.0000   1.0000   1.0000   1.0000   1.0000   1.0076
    -0.0000  -0.0000  -0.0000  -0.0000  -0.0000  -0.0000  -0.0000  -0.0000
    -0.0000  -0.0000  -0.0000  -0.0000

          k =-0.1000 0.9000-0.2000 (   334 PWs)   bands (ev):

   -68.7992 -35.0558 -35.0172 -34.9476  14.5076  14.5367  17.6301  18.5055
    19.0091  24.9521  28.1899  28.7103  35.9489  37.1616  42.7541  52.3613
    59.1048  60.2568  65.3635  68.2079

     occupation numbers 
     1.0000   1.0000   1.0000   1.0000   1.0000   1.0000   1.0000  -0.0025
    -0.0000  -0.0000  -0.0000  -0.0000  -0.0000  -0.0000  -0.0000  -0.0000
    -0.0000  -0.0000  -0.0000  -0.0000

          k = 0.0000 0.0000 0.8000 (   338 PWs)   bands (ev):

   -68.7948 -35.0315 -35.0068 -35.0068  14.3183  14.4024  18.4614  18.4614
    18.8733  24.4225  29.5293  29.5293  34.2409  35.8515  42.1355  54.5492
    59.8797  59.8797  63.5204  69.6992

     occupation numbers 
     1.0000   1.0000   1.0000   1.0000   1.0000   1.0000  -0.0082  -0.0082
    -0.0000  -0.0000  -0.0000  -0.0000  -0.0000  -0.0000  -0.0000  -0.0000
    -0.0000  -0.0000  -0.0000  -0.0000

          k = 0.0000 0.9000-0.1000 (   334 PWs)   bands (ev):

   -68.7890 -35.0488 -35.0220 -35.0088  14.2046  14.2096  18.6154  18.7432
    19.1538  26.8382  27.4064  28.7858  34.5106  35.5482  40.4028  54.9154
    60.9038  62.8665  66.4209  66.4683

     occupation numbers 
     1.0000   1.0000   1.0000   1.0000   1.0000   1.0000  -0.0000  -0.0000
    -0.0000  -0.0000  -0.0000  -0.0000  -0.0000  -0.0000  -0.0000  -0.0000
    -0.0000  -0.0000  -0.0000  -0.0000

          k = 0.0000 0.0000-1.0000 (   370 PWs)   bands (ev):

   -68.7834 -35.0374 -35.0374 -35.0374  14.0303  14.0303  19.1270  19.1270
    19.1270  27.9922  27.9922  27.9922  34.0400  34.0400  39.1404  55.9946
    65.8682  65.8682  65.8683  66.4705

     occupation numbers 
     1.0000   1.0000   1.0000   1.0000   1.0000   1.0000  -0.0000  -0.0000
    -0.0000  -0.0000  -0.0000  -0.0000  -0.0000  -0.0000  -0.0000  -0.0000
    -0.0000  -0.0000  -0.0000  -0.0000

 ------ SPIN DOWN ----------


          k = 0.0000 0.0000 0.0000 (   321 PWs)   bands (ev):

   -68.9223 -34.7335 -34.7335 -34.7335   9.6735  16.5939  16.5939  16.5939
    18.1622  18.1622  42.3330  42.3330  42.3330  48.0046  48.0046  50.3988
    50.3988  51.2144  51.2144  51.2144

     occupation numbers 
     1.0000   1.0000   1.0000   1.0000   1.0000   1.0000   1.0000   1.0000
     0.6722   0.6722  -0.0000  -0.0000  -0.0000  -0.0000  -0.0000  -0.0000
    -0.0000  -0.0000  -0.0000  -0.0000

          k = 0.0000-0.1000 0.1000 (   329 PWs)   bands (ev):

   -68.9146 -34.7747 -34.7471 -34.7335  10.0847  16.4740  16.5730  16.8211
    18.0471  18.1721  40.3071  41.8128  42.2079  47.0037  47.1709  47.5572
    49.4827  51.3214  53.7825  54.7540

     occupation numbers 
     1.0000   1.0000   1.0000   1.0000   1.0000   1.0000   1.0000   1.0000
     1.0299   0.6138  -0.0000  -0.0000  -0.0000  -0.0000  -0.0000  -0.0000
    -0.0000  -0.0000  -0.0000  -0.0000

          k = 0.0000-0.2000 0.2000 (   342 PWs)   bands (ev):

   -68.8947 -34.8818 -34.7827 -34.7334  11.2319  16.1698  16.4465  17.4490
    17.9079  18.2083  36.2220  40.0186  41.9605  43.8365  45.9390  47.6213
    51.2890  53.8957  58.0701  58.8976

     occupation numbers 
     1.0000   1.0000   1.0000   1.0000   1.0000   1.0000   1.0000   1.0000
     1.0062   0.3909  -0.0000  -0.0000  -0.0000  -0.0000  -0.0000  -0.0000
    -0.0000  -0.0000  -0.0000  -0.0000

          k = 0.0000-0.3000 0.3000 (   328 PWs)   bands (ev):

   -68.8699 -35.0125 -34.8264 -34.7334  12.7217  15.8111  16.4437  17.9740
    18.2746  18.3060  31.7710  38.0024  40.9953  41.7494  45.3689  49.9610
    52.0166  57.7956  62.5157  62.9193

     occupation numbers 
     1.0000   1.0000   1.0000   1.0000   1.0000   1.0000   1.0000   1.0235
     0.0723  -0.0014  -0.0000  -0.0000  -0.0000  -0.0000  -0.0000  -0.0000
    -0.0000  -0.0000  -0.0000  -0.0000

          k = 0.0000-0.4000 0.4000 (   324 PWs)   bands (ev):

   -68.8498 -35.1171 -34.8617 -34.7334  13.5869  15.5336  17.4445  18.1356
    18.3470  19.0860  27.8462  36.5918  39.0055  41.6228  45.3530  51.8588
    53.2957  61.9664  62.6887  64.4199

     occupation numbers 
     1.0000   1.0000   1.0000   1.0000   1.0000   1.0000   1.0000   0.8128
    -0.0345  -0.0000  -0.0000  -0.0000  -0.0000  -0.0000  -0.0000  -0.0000
    -0.0000  -0.0000  -0.0000  -0.0000

          k = 0.0000 0.5000-0.5000 (   328 PWs)   bands (ev):

   -68.8421 -35.1568 -34.8751 -34.7334  13.7172  15.4303  18.1345  18.3794
    18.5806  19.4106  25.9296  36.0918  38.2746  41.5816  45.4270  51.6585
    56.6084  58.2474  64.4500  66.6881

     occupation numbers 
     1.0000   1.0000   1.0000   1.0000   1.0000   1.0000   0.8180  -0.0322
    -0.0002  -0.0000  -0.0000  -0.0000  -0.0000  -0.0000  -0.0000  -0.0000
    -0.0000  -0.0000  -0.0000  -0.0000

          k =-0.1000-0.1000 0.2000 (   339 PWs)   bands (ev):

   -68.9008 -34.8485 -34.7620 -34.7434  10.8689  16.3240  16.3963  17.2921
    17.8835  18.2278  38.0669  39.2569  42.8265  43.6967  46.6714  48.4802
    51.4561  51.5243  56.2348  57.2016

     occupation numbers 
     1.0000   1.0000   1.0000   1.0000   1.0000   1.0000   1.0000   1.0000
     1.0032   0.2779  -0.0000  -0.0000  -0.0000  -0.0000  -0.0000  -0.0000
    -0.0000  -0.0000  -0.0000  -0.0000

          k =-0.1000-0.2000 0.3000 (   332 PWs)   bands (ev):

   -68.8785 -34.9603 -34.8046 -34.7475  12.2436  15.9935  16.1921  17.8252
    18.1129  18.3329  34.1271  37.0034  40.8472  42.9542  47.3100  48.3362
    53.5559  54.3301  58.6376  61.4692

     occupation numbers 
     1.0000   1.0000   1.0000   1.0000   1.0000   1.0000   1.0000   1.0005
     0.9063  -0.0293  -0.0000  -0.0000  -0.0000  -0.0000  -0.0000  -0.0000
    -0.0000  -0.0000  -0.0000  -0.0000

          k =-0.1000-0.3000 0.4000 (   333 PWs)   bands (ev):

   -68.8560 -35.0685 -34.8525 -34.7485  13.5305  15.6687  16.4164  17.9767
    18.4094  19.1729  29.8419  35.4708  38.7460  42.8227  47.4054  49.4605
    54.6764  58.7542  61.2203  64.2095

     occupation numbers 
     1.0000   1.0000   1.0000   1.0000   1.0000   1.0000   1.0000   1.0244
    -0.0227  -0.0000  -0.0000  -0.0000  -0.0000  -0.0000  -0.0000  -0.0000
    -0.0000  -0.0000  -0.0000  -0.0000

          k =-0.1000 0.6000-0.5000 (   329 PWs)   bands (ev):

   -68.8422 -35.1343 -34.8826 -34.7488  13.9098  15.4862  17.2445  18.1014
    18.6254  20.2688  26.5374  34.6111  37.5673  42.7346  47.4319  50.3256
    56.4338  59.3576  64.0027  65.2427

     occupation numbers 
     1.0000   1.0000   1.0000   1.0000   1.0000   1.0000   1.0000   0.9434
    -0.0000  -0.0000  -0.0000  -0.0000  -0.0000  -0.0000  -0.0000  -0.0000
    -0.0000  -0.0000  -0.0000  -0.0000

          k =-0.2000-0.2000 0.4000 (   333 PWs)   bands (ev):

   -68.8584 -35.0387 -34.8486 -34.7660  13.5780  15.7183  15.9636  17.8455
    18.4179  19.3169  32.1192  32.9270  38.9162  43.5570  47.3356  51.5947
    54.0729  57.5692  58.5658  63.9622

     occupation numbers 
     1.0000   1.0000   1.0000   1.0000   1.0000   1.0000   1.0000   1.0010
    -0.0198  -0.0000  -0.0000  -0.0000  -0.0000  -0.0000  -0.0000  -0.0000
    -0.0000  -0.0000  -0.0000  -0.0000

          k =-0.2000 0.7000-0.5000 (   328 PWs)   bands (ev):

   -68.8422 -35.0888 -34.9047 -34.7732  14.3893  15.5215  16.1701  18.0187
    18.5091  20.9534  28.3787  31.3909  37.6889  43.9041  47.9063  52.1930
    56.2321  58.7436  60.8647  65.1969

     occupation numbers 
     1.0000   1.0000   1.0000   1.0000   1.0000   1.0000   1.0000   1.0352
    -0.0023  -0.0000  -0.0000  -0.0000  -0.0000  -0.0000  -0.0000  -0.0000
    -0.0000  -0.0000  -0.0000  -0.0000

          k =-0.2000 0.6000-0.4000 (   322 PWs)   bands (ev):

   -68.8360 -35.1045 -34.9304 -34.7749  14.4726  15.4977  16.4323  18.1141
    18.5867  22.3717  26.0508  30.9409  37.2553  44.0128  48.3769  51.8586
    56.1925  61.1975  63.8501  64.6604

     occupation numbers 
     1.0000   1.0000   1.0000   1.0000   1.0000   1.0000   1.0000   0.9022
    -0.0002  -0.0000  -0.0000  -0.0000  -0.0000  -0.0000  -0.0000  -0.0000
    -0.0000  -0.0000  -0.0000  -0.0000

          k =-0.3000 0.7000-0.4000 (   322 PWs)   bands (ev):

   -68.8336 -35.0625 -34.9795 -34.7848  14.9524  15.4721  15.8909  18.2041
    18.4561  23.4794  26.8244  28.3076  37.2388  45.1703  46.9029  54.5028
    57.7046  58.5666  63.8323  64.6280

     occupation numbers 
     1.0000   1.0000   1.0000   1.0000   1.0000   1.0000   1.0000   0.4161
    -0.0093  -0.0000  -0.0000  -0.0000  -0.0000  -0.0000  -0.0000  -0.0000
    -0.0000  -0.0000  -0.0000  -0.0000

          k = 0.0000 0.0000 0.2000 (   329 PWs)   bands (ev):

   -68.9072 -34.7862 -34.7609 -34.7609  10.4852  16.5901  16.5901  16.8238
    17.7556  18.3145  39.4766  41.4717  41.4717  43.8758  47.5001  47.5001
    50.5717  52.8022  54.2568  56.6810

     occupation numbers 
     1.0000   1.0000   1.0000   1.0000   1.0000   1.0000   1.0000   1.0000
     1.0000  -0.0133  -0.0000  -0.0000  -0.0000  -0.0000  -0.0000  -0.0000
    -0.0000  -0.0000  -0.0000  -0.0000

          k = 0.0000-0.1000 0.3000 (   339 PWs)   bands (ev):

   -68.8877 -34.8814 -34.7970 -34.7668  11.5972  16.3752  16.5066  17.3917
    17.4693  18.4452  36.4318  39.2824  39.9446  43.4108  46.2879  47.3848
    52.6277  55.6181  56.9561  60.2032

     occupation numbers 
     1.0000   1.0000   1.0000   1.0000   1.0000   1.0000   1.0000   1.0000
     1.0000  -0.0118  -0.0000  -0.0000  -0.0000  -0.0000  -0.0000  -0.0000
    -0.0000  -0.0000  -0.0000  -0.0000

          k = 0.0000-0.2000 0.4000 (   335 PWs)   bands (ev):

   -68.8636 -35.0067 -34.8414 -34.7652  13.0307  16.0472  16.2809  17.6433
    18.2556  18.6327  32.0482  37.4958  38.2094  44.3719  44.9464  47.6620
    56.5809  56.6059  60.4457  62.3866

     occupation numbers 
     1.0000   1.0000   1.0000   1.0000   1.0000   1.0000   1.0000   1.0000
     0.1420  -0.0000  -0.0000  -0.0000  -0.0000  -0.0000  -0.0000  -0.0000
    -0.0000  -0.0000  -0.0000  -0.0000

          k = 0.0000-0.3000 0.5000 (   327 PWs)   bands (ev):

   -68.8440 -35.1072 -34.8771 -34.7635  13.8607  15.7891  16.5748  17.8971
    19.0505  19.3723  28.0373  36.3165  36.7634  44.2011  45.6370  47.9222
    55.7123  60.8329  61.5456  66.8431

     occupation numbers 
     1.0000   1.0000   1.0000   1.0000   1.0000   1.0000   1.0000   1.0047
    -0.0000  -0.0000  -0.0000  -0.0000  -0.0000  -0.0000  -0.0000  -0.0000
    -0.0000  -0.0000  -0.0000  -0.0000

          k = 0.0000 0.6000-0.4000 (   330 PWs)   bands (ev):

   -68.8365 -35.1454 -34.8907 -34.7629  13.9745  15.6926  16.8966  17.9035
    19.3832  20.3529  25.9663  35.8988  36.1890  43.9724  46.4662  47.7790
    55.0155  61.2838  66.6353  67.0189

     occupation numbers 
     1.0000   1.0000   1.0000   1.0000   1.0000   1.0000   1.0000   1.0055
    -0.0000  -0.0000  -0.0000  -0.0000  -0.0000  -0.0000  -0.0000  -0.0000
    -0.0000  -0.0000  -0.0000  -0.0000

          k =-0.1000-0.1000 0.4000 (   327 PWs)   bands (ev):

   -68.8665 -34.9650 -34.8383 -34.7886  12.8457  16.1558  16.3872  17.3286
    18.0209  18.7102  34.3462  35.2929  40.1566  41.6133  45.8684  50.1270
    53.2343  58.1825  59.3908  61.0950

     occupation numbers 
     1.0000   1.0000   1.0000   1.0000   1.0000   1.0000   1.0000   1.0000
     1.0354  -0.0000  -0.0000  -0.0000  -0.0000  -0.0000  -0.0000  -0.0000
    -0.0000  -0.0000  -0.0000  -0.0000

          k =-0.1000-0.2000 0.5000 (   327 PWs)   bands (ev):

   -68.8452 -35.0570 -34.8883 -34.7921  14.0121  15.7773  16.2672  17.6195
    18.5812  19.6644  30.3379  33.3800  39.0859  42.2647  45.5009  50.8057
    55.1442  57.1058  62.3672  64.9155

     occupation numbers 
     1.0000   1.0000   1.0000   1.0000   1.0000   1.0000   1.0000   1.0000
    -0.0002  -0.0000  -0.0000  -0.0000  -0.0000  -0.0000  -0.0000  -0.0000
    -0.0000  -0.0000  -0.0000  -0.0000

          k =-0.1000 0.7000-0.4000 (   327 PWs)   bands (ev):

   -68.8320 -35.1143 -34.9207 -34.7916  14.3634  15.8468  16.1797  17.8050
    18.9934  21.4165  26.7723  32.4887  38.1508  43.4961  45.4193  50.0427
    53.5543  62.0929  64.4949  67.7322

     occupation numbers 
     1.0000   1.0000   1.0000   1.0000   1.0000   1.0000   1.0000   1.0002
    -0.0000  -0.0000  -0.0000  -0.0000  -0.0000  -0.0000  -0.0000  -0.0000
    -0.0000  -0.0000  -0.0000  -0.0000

          k =-0.2000 0.2000 0.2000 (   336 PWs)   bands (ev):

   -68.8841 -34.9442 -34.7648 -34.7648  11.9488  16.0173  16.0173  18.0969
    18.0969  18.1374  36.1676  36.1676  39.2478  44.5586  50.1936  50.1936
    51.3357  51.3357  55.9228  62.6397

     occupation numbers 
     1.0000   1.0000   1.0000   1.0000   1.0000   1.0000   1.0000   0.9558
     0.9558   0.8043  -0.0000  -0.0000  -0.0000  -0.0000  -0.0000  -0.0000
    -0.0000  -0.0000  -0.0000  -0.0000

          k =-0.2000 0.8000-0.4000 (   323 PWs)   bands (ev):

   -68.8303 -35.0799 -34.9553 -34.8021  14.8200  15.3609  16.1460  17.8906
    18.6641  21.7899  28.7306  29.5781  40.7988  40.9683  44.7263  52.0695
    55.9199  56.9342  66.2356  67.8090

     occupation numbers 
     1.0000   1.0000   1.0000   1.0000   1.0000   1.0000   1.0000   1.0039
    -0.0000  -0.0000  -0.0000  -0.0000  -0.0000  -0.0000  -0.0000  -0.0000
    -0.0000  -0.0000  -0.0000  -0.0000

          k =-0.2000 0.7000-0.3000 (   324 PWs)   bands (ev):

   -68.8246 -35.0776 -34.9940 -34.8038  14.9900  15.6065  15.7363  18.1181
    18.6790  23.9191  26.1694  28.8541  40.3860  42.5750  43.5101  50.9948
    56.3323  61.5934  62.6619  68.5732

     occupation numbers 
     1.0000   1.0000   1.0000   1.0000   1.0000   1.0000   1.0000   0.8876
    -0.0000  -0.0000  -0.0000  -0.0000  -0.0000  -0.0000  -0.0000  -0.0000
    -0.0000  -0.0000  -0.0000  -0.0000

          k =-0.3000 0.3000 0.2000 (   335 PWs)   bands (ev):

   -68.8635 -35.0341 -34.8187 -34.7683  13.3927  15.6634  15.8172  18.0964
    18.2613  19.2638  32.1655  34.5784  36.4674  45.4668  50.1566  50.9543
    53.0565  55.2526  57.6330  65.9176

     occupation numbers 
     1.0000   1.0000   1.0000   1.0000   1.0000   1.0000   1.0000   0.9570
     0.1191  -0.0000  -0.0000  -0.0000  -0.0000  -0.0000  -0.0000  -0.0000
    -0.0000  -0.0000  -0.0000  -0.0000

          k = 0.6000-0.6000 0.2000 (   322 PWs)   bands (ev):

   -68.8467 -35.0944 -34.8742 -34.7711  14.1961  15.4257  16.3690  18.1837
    18.3599  20.6614  28.1832  33.5195  34.9563  45.4642  49.9899  52.8211
    53.7101  60.1129  61.5960  62.5783

     occupation numbers 
     1.0000   1.0000   1.0000   1.0000   1.0000   1.0000   1.0000   0.5428
    -0.0354  -0.0000  -0.0000  -0.0000  -0.0000  -0.0000  -0.0000  -0.0000
    -0.0000  -0.0000  -0.0000  -0.0000

          k = 0.6000-0.7000 0.3000 (   328 PWs)   bands (ev):

   -68.8484 -35.0705 -34.8613 -34.7980  14.5609  15.4539  15.6229  18.1956
    18.3600  20.8288  30.4158  31.1505  34.2133  47.3841  51.0277  52.9882
    55.0393  57.4222  58.6682  64.1678

     occupation numbers 
     1.0000   1.0000   1.0000   1.0000   1.0000   1.0000   1.0000   0.4685
    -0.0354  -0.0000  -0.0000  -0.0000  -0.0000  -0.0000  -0.0000  -0.0000
    -0.0000  -0.0000  -0.0000  -0.0000

          k = 0.5000-0.5000 0.2000 (   326 PWs)   bands (ev):

   -68.8403 -35.1148 -34.8977 -34.7722  14.2602  15.3428  16.9493  18.2288
    18.3934  21.7746  26.0199  33.1461  34.4310  45.3810  50.0357  52.4994
    56.4779  59.3345  63.5503  65.3384

     occupation numbers 
     1.0000   1.0000   1.0000   1.0000   1.0000   1.0000   1.0000   0.2722
    -0.0281  -0.0000  -0.0000  -0.0000  -0.0000  -0.0000  -0.0000  -0.0000
    -0.0000  -0.0000  -0.0000  -0.0000

          k = 0.5000-0.6000 0.3000 (   332 PWs)   bands (ev):

   -68.8392 -35.0677 -34.9215 -34.8077  14.8130  15.3566  16.0812  18.2831
    18.4110  22.8631  27.0582  30.0675  33.3892  47.9945  51.5593  53.9688
    56.8830  60.1016  61.5527  62.8740

     occupation numbers 
     1.0000   1.0000   1.0000   1.0000   1.0000   1.0000   1.0000   0.0472
    -0.0221  -0.0000  -0.0000  -0.0000  -0.0000  -0.0000  -0.0000  -0.0000
    -0.0000  -0.0000  -0.0000  -0.0000

          k = 0.4000-0.6000 0.4000 (   324 PWs)   bands (ev):

   -68.8363 -34.9990 -34.9990 -34.8211  15.0215  15.6611  15.6611  18.3750
    18.3750  25.5646  25.5646  27.8508  33.0623  50.0365  50.0365  56.6171
    59.2326  59.2326  62.0773  62.2639

     occupation numbers 
     1.0000   1.0000   1.0000   1.0000   1.0000   1.0000   1.0000  -0.0333
    -0.0333  -0.0000  -0.0000  -0.0000  -0.0000  -0.0000  -0.0000  -0.0000
    -0.0000  -0.0000  -0.0000  -0.0000

          k = 0.0000 0.0000 0.4000 (   329 PWs)   bands (ev):

   -68.8696 -34.8999 -34.8344 -34.8344  12.5802  16.6917  16.7601  16.7601
    17.4376  18.7403  36.5865  37.5485  37.5485  39.4160  49.5669  49.5669
    51.1945  56.4887  60.2613  61.3029

     occupation numbers 
     1.0000   1.0000   1.0000   1.0000   1.0000   1.0000   1.0000   1.0000
     1.0000  -0.0000  -0.0000  -0.0000  -0.0000  -0.0000  -0.0000  -0.0000
    -0.0000  -0.0000  -0.0000  -0.0000

          k = 0.0000-0.1000 0.5000 (   328 PWs)   bands (ev):

   -68.8471 -34.9929 -34.8804 -34.8465  13.7636  15.9475  16.6883  17.2196
    18.1477  19.2793  32.8452  35.4550  36.4791  39.7154  48.9254  50.5262
    54.5668  54.7726  60.4492  64.5119

     occupation numbers 
     1.0000   1.0000   1.0000   1.0000   1.0000   1.0000   1.0000   1.0000
     0.7523  -0.0000  -0.0000  -0.0000  -0.0000  -0.0000  -0.0000  -0.0000
    -0.0000  -0.0000  -0.0000  -0.0000

          k = 0.0000-0.2000 0.6000 (   325 PWs)   bands (ev):

   -68.8288 -35.0815 -34.9174 -34.8419  14.4306  15.6024  16.5097  17.5310
    18.9595  20.7900  28.6450  33.9138  35.7736  41.5553  48.0392  49.1209
    52.4850  59.8002  65.0355  66.8395

     occupation numbers 
     1.0000   1.0000   1.0000   1.0000   1.0000   1.0000   1.0000   1.0000
    -0.0000  -0.0000  -0.0000  -0.0000  -0.0000  -0.0000  -0.0000  -0.0000
    -0.0000  -0.0000  -0.0000  -0.0000

          k = 0.0000 0.7000-0.3000 (   328 PWs)   bands (ev):

   -68.8219 -35.1157 -34.9315 -34.8396  14.4900  15.6472  16.4369  17.5616
    19.3117  22.4508  26.1345  33.3236  35.5125  42.9469  47.4027  47.7369
    52.1796  64.4258  66.5373  68.1084

     occupation numbers 
     1.0000   1.0000   1.0000   1.0000   1.0000   1.0000   1.0000   1.0000
    -0.0000  -0.0000  -0.0000  -0.0000  -0.0000  -0.0000  -0.0000  -0.0000
    -0.0000  -0.0000  -0.0000  -0.0000

          k =-0.1000-0.1000 0.6000 (   327 PWs)   bands (ev):

   -68.8276 -35.0448 -34.9358 -34.8658  14.5124  15.3712  16.7936  17.5519
    18.6115  20.6770  31.0847  31.5410  37.3820  38.9638  48.1515  50.6712
    54.6407  55.8254  63.4738  68.4330

     occupation numbers 
     1.0000   1.0000   1.0000   1.0000   1.0000   1.0000   1.0000   1.0000
    -0.0001  -0.0000  -0.0000  -0.0000  -0.0000  -0.0000  -0.0000  -0.0000
    -0.0000  -0.0000  -0.0000  -0.0000

          k =-0.1000 0.8000-0.3000 (   327 PWs)   bands (ev):

   -68.8156 -35.0826 -34.9762 -34.8653  14.7550  15.1567  16.6008  17.9028
    18.9999  23.0993  27.3852  30.3807  37.2941  40.4516  45.7781  49.2987
    55.1793  60.4893  66.5614  68.7599

     occupation numbers 
     1.0000   1.0000   1.0000   1.0000   1.0000   1.0000   1.0000   1.0054
    -0.0000  -0.0000  -0.0000  -0.0000  -0.0000  -0.0000  -0.0000  -0.0000
    -0.0000  -0.0000  -0.0000  -0.0000

          k =-0.2000 0.8000-0.2000 (   324 PWs)   bands (ev):

   -68.8105 -35.0442 -35.0442 -34.8674  14.9420  14.9420  16.4512  18.6072
    18.6072  25.9805  25.9805  27.8806  39.3234  39.3234  43.9854  49.1596
    59.4337  61.2848  61.2848  72.3982

     occupation numbers 
     1.0000   1.0000   1.0000   1.0000   1.0000   1.0000   1.0000  -0.0001
    -0.0001  -0.0000  -0.0000  -0.0000  -0.0000  -0.0000  -0.0000  -0.0000
    -0.0000  -0.0000  -0.0000  -0.0000

          k = 0.6000-0.6000 0.4000 (   333 PWs)   bands (ev):

   -68.8404 -35.0491 -34.8716 -34.8716  15.3390  15.3390  15.4460  18.3693
    18.3693  22.9165  29.3467  29.3467  30.6375  51.2239  53.6432  53.6432
    56.1096  59.4496  59.4496  64.0019

     occupation numbers 
     1.0000   1.0000   1.0000   1.0000   1.0000   1.0000   1.0000  -0.0344
    -0.0344  -0.0000  -0.0000  -0.0000  -0.0000  -0.0000  -0.0000  -0.0000
    -0.0000  -0.0000  -0.0000  -0.0000

          k = 0.5000-0.5000 0.4000 (   328 PWs)   bands (ev):

   -68.8373 -35.0064 -34.9343 -34.8755  15.2633  15.3120  15.7611  18.3907
    18.4160  25.1216  26.6320  28.9825  29.9939  52.2507  54.9227  55.8265
    56.2480  58.4676  60.8110  63.2844

     occupation numbers 
     1.0000   1.0000   1.0000   1.0000   1.0000   1.0000   1.0000  -0.0289
    -0.0205  -0.0000  -0.0000  -0.0000  -0.0000  -0.0000  -0.0000  -0.0000
    -0.0000  -0.0000  -0.0000  -0.0000

          k = 0.0000 0.0000 0.6000 (   321 PWs)   bands (ev):

   -68.8266 -34.9933 -34.9283 -34.9283  14.3628  15.4047  17.3961  17.3961
    18.2205  20.3324  33.1133  33.1133  34.9705  36.9630  49.8044  52.5041
    54.1801  54.1801  60.3071  70.9668

     occupation numbers 
     1.0000   1.0000   1.0000   1.0000   1.0000   1.0000   1.0000   1.0000
     0.3185  -0.0000  -0.0000  -0.0000  -0.0000  -0.0000  -0.0000  -0.0000
    -0.0000  -0.0000  -0.0000  -0.0000

          k = 0.0000-0.1000 0.7000 (   328 PWs)   bands (ev):

   -68.8100 -35.0500 -34.9669 -34.9374  14.5698  14.8875  17.5370  17.7943
    18.8570  22.3614  29.5631  31.4059  35.1158  37.5935  45.8481  51.9998
    55.5374  58.6846  63.6192  70.6950

     occupation numbers 
     1.0000   1.0000   1.0000   1.0000   1.0000   1.0000   1.0000   1.0002
    -0.0000  -0.0000  -0.0000  -0.0000  -0.0000  -0.0000  -0.0000  -0.0000
    -0.0000  -0.0000  -0.0000  -0.0000

          k = 0.0000 0.8000-0.2000 (   328 PWs)   bands (ev):

   -68.8037 -35.0788 -34.9816 -34.9336  14.5507  14.7486  17.5182  17.9160
    19.2241  24.6866  26.5841  30.7481  35.0857  38.7968  43.7866  51.6897
    55.6443  62.7012  66.4784  67.9571

     occupation numbers 
     1.0000   1.0000   1.0000   1.0000   1.0000   1.0000   1.0000   1.0076
    -0.0000  -0.0000  -0.0000  -0.0000  -0.0000  -0.0000  -0.0000  -0.0000
    -0.0000  -0.0000  -0.0000  -0.0000

          k =-0.1000 0.9000-0.2000 (   334 PWs)   bands (ev):

   -68.7992 -35.0558 -35.0172 -34.9476  14.5076  14.5367  17.6301  18.5055
    19.0091  24.9521  28.1899  28.7103  35.9489  37.1616  42.7541  52.3613
    59.1048  60.2568  65.3635  68.2079

     occupation numbers 
     1.0000   1.0000   1.0000   1.0000   1.0000   1.0000   1.0000  -0.0025
    -0.0000  -0.0000  -0.0000  -0.0000  -0.0000  -0.0000  -0.0000  -0.0000
    -0.0000  -0.0000  -0.0000  -0.0000

          k = 0.0000 0.0000 0.8000 (   338 PWs)   bands (ev):

   -68.7948 -35.0315 -35.0068 -35.0068  14.3183  14.4024  18.4614  18.4614
    18.8733  24.4225  29.5293  29.5293  34.2409  35.8515  42.1355  54.5492
    59.8797  59.8797  63.5204  69.6992

     occupation numbers 
     1.0000   1.0000   1.0000   1.0000   1.0000   1.0000  -0.0082  -0.0082
    -0.0000  -0.0000  -0.0000  -0.0000  -0.0000  -0.0000  -0.0000  -0.0000
    -0.0000  -0.0000  -0.0000  -0.0000

          k = 0.0000 0.9000-0.1000 (   334 PWs)   bands (ev):

   -68.7890 -35.0488 -35.0220 -35.0088  14.2046  14.2096  18.6154  18.7432
    19.1538  26.8382  27.4064  28.7858  34.5106  35.5482  40.4028  54.9154
    60.9038  62.8665  66.4209  66.4683

     occupation numbers 
     1.0000   1.0000   1.0000   1.0000   1.0000   1.0000  -0.0000  -0.0000
    -0.0000  -0.0000  -0.0000  -0.0000  -0.0000  -0.0000  -0.0000  -0.0000
    -0.0000  -0.0000  -0.0000  -0.0000

          k = 0.0000 0.0000-1.0000 (   370 PWs)   bands (ev):

   -68.7834 -35.0374 -35.0374 -35.0374  14.0303  14.0303  19.1270  19.1270
    19.1270  27.9922  27.9922  27.9922  34.0400  34.0400  39.1404  55.9946
    65.8682  65.8682  65.8682  66.4705

     occupation numbers 
     1.0000   1.0000   1.0000   1.0000   1.0000   1.0000  -0.0000  -0.0000
    -0.0000  -0.0000  -0.0000  -0.0000  -0.0000  -0.0000  -0.0000  -0.0000
    -0.0000  -0.0000  -0.0000  -0.0000

     the Fermi energy is    18.1906 ev

!    total energy              =    -250.30517285 Ry
     estimated scf accuracy    <          5.7E-12 Ry
     smearing contrib. (-TS)   =      -0.00004736 Ry
     internal energy E=F+TS    =    -250.30512549 Ry

     The total energy is F=E-TS. E is the sum of the following terms:
     one-electron contribution =    -113.67827876 Ry
     hartree contribution      =      66.25133156 Ry
     xc contribution           =     -29.07510644 Ry
     ewald contribution        =    -173.80307186 Ry

     total magnetization       =    -0.00 Bohr mag/cell
     absolute magnetization    =     0.00 Bohr mag/cell

     convergence has been achieved in  12 iterations

     Forces acting on atoms (cartesian axes, Ry/au):

     atom    1 type  1   force =     0.00000000    0.00000000    0.00000000
     The non-local contrib.  to forces
     atom    1 type  1   force =     0.00000000   -0.00000000    0.00000000
     The ionic contribution  to forces
     atom    1 type  1   force =    -0.00000000   -0.00000000   -0.00000000
     The local contribution  to forces
     atom    1 type  1   force =    -0.00000000    0.00000000    0.00000000
     The core correction contribution to forces
     atom    1 type  1   force =    -0.00000000    0.00000000    0.00000000
     The Hubbard contrib.    to forces
     atom    1 type  1   force =     0.00000000    0.00000000    0.00000000
     The SCF correction term to forces
     atom    1 type  1   force =    -0.00000000   -0.00000000   -0.00000000

     Total force =     0.000000     Total SCF correction =     0.000000


     Computing stress (Cartesian axis) and pressure

          total   stress  (Ry/bohr**3)                   (kbar)     P=     -189.61
  -0.00128892  -0.00000000   0.00000000         -189.61       -0.00        0.00
  -0.00000000  -0.00128892  -0.00000000           -0.00     -189.61       -0.00
   0.00000000  -0.00000000  -0.00128892            0.00       -0.00     -189.61

     kinetic stress (kbar)  50282.76      0.00     -0.00
                                0.00  50282.76      0.00
                               -0.00      0.00  50282.76

     local   stress (kbar)  10516.61      0.00      0.00
                                0.00  10516.61     -0.00
                                0.00     -0.00  10516.61

     nonloc. stress (kbar)  24882.54      0.00     -0.00
                                0.00  24882.54      0.00
                               -0.00      0.00  24882.54

     hartree stress (kbar)  42184.58     -0.00     -0.00
                               -0.00  42184.58      0.00
                               -0.00      0.00  42184.58

     exc-cor stress (kbar) -11956.68      0.00      0.00
                                0.00 -11956.68     -0.00
                                0.00     -0.00 -11956.68

     corecor stress (kbar)  -5432.81     -0.00      0.00
                               -0.00  -5432.81      0.00
                                0.00      0.00  -5432.81

     ewald   stress (kbar)-110666.60     -0.00     -0.00
                               -0.00-110666.60     -0.00
                               -0.00     -0.00-110666.60

     hubbard stress (kbar)      0.00      0.00      0.00
                                0.00      0.00      0.00
                                0.00      0.00      0.00

     DFT-D   stress (kbar)      0.00      0.00      0.00
                                0.00      0.00      0.00
                                0.00      0.00      0.00

     XDM     stress (kbar)      0.00      0.00      0.00
                                0.00      0.00      0.00
                                0.00      0.00      0.00

     dft-nl  stress (kbar)      0.00      0.00      0.00
                                0.00      0.00      0.00
                                0.00      0.00      0.00

     TS-vdW  stress (kbar)      0.00      0.00      0.00
                                0.00      0.00      0.00
                                0.00      0.00      0.00


                                0.00      0.00      0.00
                                0.00      0.00      0.00


                                0.00      0.00      0.00


     Writing all to output data dir ./fe_nfm.save/

     init_run     :      1.42s CPU      1.47s WALL (       1 calls)
     electrons    :     27.16s CPU     27.66s WALL (       1 calls)
     forces       :      0.24s CPU      0.24s WALL (       1 calls)
     stress       :      0.67s CPU      0.67s WALL (       1 calls)

     Called by init_run:
     wfcinit      :      0.84s CPU      0.87s WALL (       1 calls)
     wfcinit:atom :      0.01s CPU      0.01s WALL (      94 calls)
     wfcinit:wfcr :      0.80s CPU      0.82s WALL (      94 calls)
     potinit      :      0.08s CPU      0.08s WALL (       1 calls)
     hinit0       :      0.44s CPU      0.44s WALL (       1 calls)

     Called by electrons:
     c_bands      :     21.68s CPU     22.04s WALL (      12 calls)
     sum_band     :      4.37s CPU      4.48s WALL (      12 calls)
     v_of_rho     :      0.69s CPU      0.70s WALL (      13 calls)
     v_h          :      0.01s CPU      0.01s WALL (      13 calls)
     v_xc         :      0.80s CPU      0.80s WALL (      15 calls)
     newd         :      0.45s CPU      0.48s WALL (      13 calls)
     mix_rho      :      0.04s CPU      0.05s WALL (      12 calls)

     Called by c_bands:
     init_us_2    :      0.34s CPU      0.35s WALL (    2538 calls)
     init_us_2:cp :      0.33s CPU      0.34s WALL (    2538 calls)
     cegterg      :     21.19s CPU     21.53s WALL (    1128 calls)

     Called by sum_band:
     sum_band:wei :      0.04s CPU      0.04s WALL (      12 calls)
     sum_band:loo :      3.69s CPU      3.79s WALL (      12 calls)
     sum_band:buf :      0.02s CPU      0.02s WALL (    1128 calls)
     sum_band:ini :      0.15s CPU      0.15s WALL (    1128 calls)
     sum_band:cal :      0.25s CPU      0.26s WALL (    1128 calls)
     sum_band:bec :      0.02s CPU      0.02s WALL (    1128 calls)
     addusdens    :      0.59s CPU      0.60s WALL (      12 calls)
     addusd:skk   :      0.00s CPU      0.00s WALL (      12 calls)
     addusd:dgemm :      0.18s CPU      0.20s WALL (      24 calls)
     addusd:qvan2 :      0.33s CPU      0.33s WALL (      24 calls)

     Called by *egterg:
     cdiaghg      :      1.84s CPU      1.87s WALL (    3227 calls)
     cegterg:over :      1.26s CPU      1.29s WALL (    2099 calls)
     cegterg:upda :      0.58s CPU      0.58s WALL (    2099 calls)
     cegterg:last :      1.22s CPU      1.25s WALL (    1815 calls)
     h_psi        :     15.73s CPU     15.99s WALL (    3321 calls)
     s_psi        :      0.51s CPU      0.51s WALL (    3321 calls)
     g_psi        :      0.05s CPU      0.05s WALL (    2099 calls)

     Called by h_psi:
     h_psi:calbec :      0.58s CPU      0.59s WALL (    3321 calls)
     vloc_psi     :     14.57s CPU     14.80s WALL (    3321 calls)
     add_vuspsi   :      0.50s CPU      0.51s WALL (    3321 calls)

     General routines
     calbec       :      0.92s CPU      0.94s WALL (    4919 calls)
     fft          :      0.24s CPU      0.24s WALL (     363 calls)
     ffts         :      0.01s CPU      0.01s WALL (      50 calls)
     fftw         :     16.41s CPU     16.73s WALL (  124786 calls)
     interpolate  :      0.03s CPU      0.03s WALL (      26 calls)

     Parallel routines

     PWSCF        :     29.84s CPU     30.42s WALL


   This run was terminated on:  14:53:58   4Feb2022            

=------------------------------------------------------------------------------=
   JOB DONE.
=------------------------------------------------------------------------------=
