
     Program PWSCF v.7.0 starts on  4Feb2022 at 14:45:28 

     This program is part of the open-source Quantum ESPRESSO suite
     for quantum simulation of materials; please cite
         "P. Giannozzi et al., J. Phys.:Condens. Matter 21 395502 (2009);
         "P. Giannozzi et al., J. Phys.:Condens. Matter 29 465901 (2017);
         "P. Giannozzi et al., J. Chem. Phys. 152 154105 (2020);
          URL http://www.quantum-espresso.org", 
     in publications or presentations arising from this work. More details at
     http://www.quantum-espresso.org/quote

     Parallel version (MPI), running on     1 processors

     MPI processes distributed on     1 nodes
     371 MiB available memory on the printing compute node when the environment starts

     Reading input from 01-fe-scf.in

     Current dimensions of program PWSCF are:
     Max number of different atomic species (ntypx) = 10
     Max number of k-points (npk) =  40000
     Max angular momentum in pseudopotentials (lmaxx) =  4

     Subspace diagonalization in iterative solution of the eigenvalue problem:
     a serial algorithm will be used


     G-vector sticks info
     --------------------
     sticks:   dense  smooth     PW     G-vecs:    dense   smooth      PW
     Sum         645     261     91                10425     2659     555

     Using Slab Decomposition



     bravais-lattice index     =            3
     lattice parameter (alat)  =       5.3603  a.u.
     unit-cell volume          =      77.0100 (a.u.)^3
     number of atoms/cell      =            1
     number of atomic types    =            1
     number of electrons       =        16.00
     number of Kohn-Sham states=           20
     kinetic-energy cutoff     =      40.0000  Ry
     charge density cutoff     =     400.0000  Ry
     scf convergence threshold =      1.0E-10
     mixing beta               =       0.5000
     number of iterations used =            8  plain     mixing
     Exchange-correlation=  SLA  PW   PBX  PBC
                           (   1   4   3   4   0   0   0)

     celldm(1)=   5.360341  celldm(2)=   0.000000  celldm(3)=   0.000000
     celldm(4)=   0.000000  celldm(5)=   0.000000  celldm(6)=   0.000000

     crystal axes: (cart. coord. in units of alat)
               a(1) = (   0.500000   0.500000   0.500000 )  
               a(2) = (  -0.500000   0.500000   0.500000 )  
               a(3) = (  -0.500000  -0.500000   0.500000 )  

     reciprocal axes: (cart. coord. in units 2 pi/alat)
               b(1) = (  1.000000  0.000000  1.000000 )  
               b(2) = ( -1.000000  1.000000  0.000000 )  
               b(3) = (  0.000000 -1.000000  1.000000 )  


     PseudoPot. # 1 for Fe read from file:
     /home/user/pseudo_dir/fe_pbe_v1.5.uspp.F.UPF
     MD5 check sum: a130daea23fe5165f5d574ae7f82ed95
     Pseudo is Ultrasoft + core correction, Zval = 16.0
     Generated by new atomic code, or converted to UPF format
     Using radial grid of  861 points,  6 beta functions with: 
                l(1) =   0
                l(2) =   0
                l(3) =   1
                l(4) =   1
                l(5) =   2
                l(6) =   2
     Q(r) pseudized with  8 coefficients,  rinner =    1.000   1.000   1.000
                                                       1.000   1.000

     atomic species   valence    mass     pseudopotential
        Fe            16.00    55.84700     Fe( 1.00)

     Starting magnetic structure 
     atomic species   magnetization
        Fe           0.500

     48 Sym. Ops., with inversion, found


                                    s                        frac. trans.

      isym =  1     identity                                     

 cryst.   s( 1) = (     1          0          0      )
                  (     0          1          0      )
                  (     0          0          1      )

 cart.    s( 1) = (  1.0000000  0.0000000  0.0000000 )
                  (  0.0000000  1.0000000  0.0000000 )
                  (  0.0000000  0.0000000  1.0000000 )


      isym =  2     180 deg rotation - cart. axis [0,0,1]        

 cryst.   s( 2) = (     0          0          1      )
                  (     1         -1          1      )
                  (     1          0          0      )

 cart.    s( 2) = ( -1.0000000  0.0000000  0.0000000 )
                  (  0.0000000 -1.0000000  0.0000000 )
                  (  0.0000000  0.0000000  1.0000000 )


      isym =  3     180 deg rotation - cart. axis [0,1,0]        

 cryst.   s( 3) = (    -1          1         -1      )
                  (     0          0         -1      )
                  (     0         -1          0      )

 cart.    s( 3) = ( -1.0000000  0.0000000  0.0000000 )
                  (  0.0000000  1.0000000  0.0000000 )
                  (  0.0000000  0.0000000 -1.0000000 )


      isym =  4     180 deg rotation - cart. axis [1,0,0]        

 cryst.   s( 4) = (     0         -1          0      )
                  (    -1          0          0      )
                  (    -1          1         -1      )

 cart.    s( 4) = (  1.0000000  0.0000000  0.0000000 )
                  (  0.0000000 -1.0000000  0.0000000 )
                  (  0.0000000  0.0000000 -1.0000000 )


      isym =  5     180 deg rotation - cart. axis [1,1,0]        

 cryst.   s( 5) = (     0          0         -1      )
                  (     0         -1          0      )
                  (    -1          0          0      )

 cart.    s( 5) = (  0.0000000  1.0000000  0.0000000 )
                  (  1.0000000  0.0000000  0.0000000 )
                  (  0.0000000  0.0000000 -1.0000000 )


      isym =  6     180 deg rotation - cart. axis [1,-1,0]       

 cryst.   s( 6) = (    -1          0          0      )
                  (    -1          1         -1      )
                  (     0          0         -1      )

 cart.    s( 6) = (  0.0000000 -1.0000000  0.0000000 )
                  ( -1.0000000  0.0000000  0.0000000 )
                  (  0.0000000  0.0000000 -1.0000000 )


      isym =  7      90 deg rotation - cart. axis [0,0,-1]       

 cryst.   s( 7) = (     1         -1          1      )
                  (     1          0          0      )
                  (     0          1          0      )

 cart.    s( 7) = (  0.0000000  1.0000000  0.0000000 )
                  ( -1.0000000  0.0000000  0.0000000 )
                  (  0.0000000  0.0000000  1.0000000 )


      isym =  8      90 deg rotation - cart. axis [0,0,1]        

 cryst.   s( 8) = (     0          1          0      )
                  (     0          0          1      )
                  (     1         -1          1      )

 cart.    s( 8) = (  0.0000000 -1.0000000  0.0000000 )
                  (  1.0000000  0.0000000  0.0000000 )
                  (  0.0000000  0.0000000  1.0000000 )


      isym =  9     180 deg rotation - cart. axis [1,0,1]        

 cryst.   s( 9) = (     1         -1          1      )
                  (     0         -1          0      )
                  (     0          0         -1      )

 cart.    s( 9) = (  0.0000000  0.0000000  1.0000000 )
                  (  0.0000000 -1.0000000  0.0000000 )
                  (  1.0000000  0.0000000  0.0000000 )


      isym = 10     180 deg rotation - cart. axis [-1,0,1]       

 cryst.   s(10) = (    -1          0          0      )
                  (     0          0          1      )
                  (     0          1          0      )

 cart.    s(10) = (  0.0000000  0.0000000 -1.0000000 )
                  (  0.0000000 -1.0000000  0.0000000 )
                  ( -1.0000000  0.0000000  0.0000000 )


      isym = 11      90 deg rotation - cart. axis [0,1,0]        

 cryst.   s(11) = (     0          0         -1      )
                  (     1          0          0      )
                  (     1         -1          1      )

 cart.    s(11) = (  0.0000000  0.0000000  1.0000000 )
                  (  0.0000000  1.0000000  0.0000000 )
                  ( -1.0000000  0.0000000  0.0000000 )


      isym = 12      90 deg rotation - cart. axis [0,-1,0]       

 cryst.   s(12) = (     0          1          0      )
                  (    -1          1         -1      )
                  (    -1          0          0      )

 cart.    s(12) = (  0.0000000  0.0000000 -1.0000000 )
                  (  0.0000000  1.0000000  0.0000000 )
                  (  1.0000000  0.0000000  0.0000000 )


      isym = 13     180 deg rotation - cart. axis [0,1,1]        

 cryst.   s(13) = (     0          1          0      )
                  (     1          0          0      )
                  (     0          0         -1      )

 cart.    s(13) = ( -1.0000000  0.0000000  0.0000000 )
                  (  0.0000000  0.0000000  1.0000000 )
                  (  0.0000000  1.0000000  0.0000000 )


      isym = 14     180 deg rotation - cart. axis [0,1,-1]       

 cryst.   s(14) = (    -1          0          0      )
                  (     0         -1          0      )
                  (     1         -1          1      )

 cart.    s(14) = ( -1.0000000  0.0000000  0.0000000 )
                  (  0.0000000  0.0000000 -1.0000000 )
                  (  0.0000000 -1.0000000  0.0000000 )


      isym = 15      90 deg rotation - cart. axis [-1,0,0]       

 cryst.   s(15) = (     0          0         -1      )
                  (    -1          1         -1      )
                  (     0          1          0      )

 cart.    s(15) = (  1.0000000  0.0000000  0.0000000 )
                  (  0.0000000  0.0000000  1.0000000 )
                  (  0.0000000 -1.0000000  0.0000000 )


      isym = 16      90 deg rotation - cart. axis [1,0,0]        

 cryst.   s(16) = (     1         -1          1      )
                  (     0          0          1      )
                  (    -1          0          0      )

 cart.    s(16) = (  1.0000000  0.0000000  0.0000000 )
                  (  0.0000000  0.0000000 -1.0000000 )
                  (  0.0000000  1.0000000  0.0000000 )


      isym = 17     120 deg rotation - cart. axis [-1,-1,-1]     

 cryst.   s(17) = (     1          0          0      )
                  (     0          0         -1      )
                  (    -1          1         -1      )

 cart.    s(17) = (  0.0000000  1.0000000  0.0000000 )
                  (  0.0000000  0.0000000  1.0000000 )
                  (  1.0000000  0.0000000  0.0000000 )


      isym = 18     120 deg rotation - cart. axis [-1,1,1]       

 cryst.   s(18) = (    -1          1         -1      )
                  (     0          1          0      )
                  (     1          0          0      )

 cart.    s(18) = (  0.0000000 -1.0000000  0.0000000 )
                  (  0.0000000  0.0000000  1.0000000 )
                  ( -1.0000000  0.0000000  0.0000000 )


      isym = 19     120 deg rotation - cart. axis [1,1,-1]       

 cryst.   s(19) = (     0         -1          0      )
                  (     1         -1          1      )
                  (     0          0          1      )

 cart.    s(19) = (  0.0000000  1.0000000  0.0000000 )
                  (  0.0000000  0.0000000 -1.0000000 )
                  ( -1.0000000  0.0000000  0.0000000 )


      isym = 20     120 deg rotation - cart. axis [1,-1,1]       

 cryst.   s(20) = (     0          0          1      )
                  (    -1          0          0      )
                  (     0         -1          0      )

 cart.    s(20) = (  0.0000000 -1.0000000  0.0000000 )
                  (  0.0000000  0.0000000 -1.0000000 )
                  (  1.0000000  0.0000000  0.0000000 )


      isym = 21     120 deg rotation - cart. axis [1,1,1]        

 cryst.   s(21) = (     1          0          0      )
                  (     1         -1          1      )
                  (     0         -1          0      )

 cart.    s(21) = (  0.0000000  0.0000000  1.0000000 )
                  (  1.0000000  0.0000000  0.0000000 )
                  (  0.0000000  1.0000000  0.0000000 )


      isym = 22     120 deg rotation - cart. axis [-1,1,-1]      

 cryst.   s(22) = (     0         -1          0      )
                  (     0          0         -1      )
                  (     1          0          0      )

 cart.    s(22) = (  0.0000000  0.0000000  1.0000000 )
                  ( -1.0000000  0.0000000  0.0000000 )
                  (  0.0000000 -1.0000000  0.0000000 )


      isym = 23     120 deg rotation - cart. axis [1,-1,-1]      

 cryst.   s(23) = (     0          0          1      )
                  (     0          1          0      )
                  (    -1          1         -1      )

 cart.    s(23) = (  0.0000000  0.0000000 -1.0000000 )
                  ( -1.0000000  0.0000000  0.0000000 )
                  (  0.0000000  1.0000000  0.0000000 )


      isym = 24     120 deg rotation - cart. axis [-1,-1,1]      

 cryst.   s(24) = (    -1          1         -1      )
                  (    -1          0          0      )
                  (     0          0          1      )

 cart.    s(24) = (  0.0000000  0.0000000 -1.0000000 )
                  (  1.0000000  0.0000000  0.0000000 )
                  (  0.0000000 -1.0000000  0.0000000 )


      isym = 25     inversion                                    

 cryst.   s(25) = (    -1          0          0      )
                  (     0         -1          0      )
                  (     0          0         -1      )

 cart.    s(25) = ( -1.0000000  0.0000000  0.0000000 )
                  (  0.0000000 -1.0000000  0.0000000 )
                  (  0.0000000  0.0000000 -1.0000000 )


      isym = 26     inv. 180 deg rotation - cart. axis [0,0,1]   

 cryst.   s(26) = (     0          0         -1      )
                  (    -1          1         -1      )
                  (    -1          0          0      )

 cart.    s(26) = (  1.0000000  0.0000000  0.0000000 )
                  (  0.0000000  1.0000000  0.0000000 )
                  (  0.0000000  0.0000000 -1.0000000 )


      isym = 27     inv. 180 deg rotation - cart. axis [0,1,0]   

 cryst.   s(27) = (     1         -1          1      )
                  (     0          0          1      )
                  (     0          1          0      )

 cart.    s(27) = (  1.0000000  0.0000000  0.0000000 )
                  (  0.0000000 -1.0000000  0.0000000 )
                  (  0.0000000  0.0000000  1.0000000 )


      isym = 28     inv. 180 deg rotation - cart. axis [1,0,0]   

 cryst.   s(28) = (     0          1          0      )
                  (     1          0          0      )
                  (     1         -1          1      )

 cart.    s(28) = ( -1.0000000  0.0000000  0.0000000 )
                  (  0.0000000  1.0000000  0.0000000 )
                  (  0.0000000  0.0000000  1.0000000 )


      isym = 29     inv. 180 deg rotation - cart. axis [1,1,0]   

 cryst.   s(29) = (     0          0          1      )
                  (     0          1          0      )
                  (     1          0          0      )

 cart.    s(29) = (  0.0000000 -1.0000000  0.0000000 )
                  ( -1.0000000  0.0000000  0.0000000 )
                  (  0.0000000  0.0000000  1.0000000 )


      isym = 30     inv. 180 deg rotation - cart. axis [1,-1,0]  

 cryst.   s(30) = (     1          0          0      )
                  (     1         -1          1      )
                  (     0          0          1      )

 cart.    s(30) = (  0.0000000  1.0000000  0.0000000 )
                  (  1.0000000  0.0000000  0.0000000 )
                  (  0.0000000  0.0000000  1.0000000 )


      isym = 31     inv.  90 deg rotation - cart. axis [0,0,-1]  

 cryst.   s(31) = (    -1          1         -1      )
                  (    -1          0          0      )
                  (     0         -1          0      )

 cart.    s(31) = (  0.0000000 -1.0000000  0.0000000 )
                  (  1.0000000  0.0000000  0.0000000 )
                  (  0.0000000  0.0000000 -1.0000000 )


      isym = 32     inv.  90 deg rotation - cart. axis [0,0,1]   

 cryst.   s(32) = (     0         -1          0      )
                  (     0          0         -1      )
                  (    -1          1         -1      )

 cart.    s(32) = (  0.0000000  1.0000000  0.0000000 )
                  ( -1.0000000  0.0000000  0.0000000 )
                  (  0.0000000  0.0000000 -1.0000000 )


      isym = 33     inv. 180 deg rotation - cart. axis [1,0,1]   

 cryst.   s(33) = (    -1          1         -1      )
                  (     0          1          0      )
                  (     0          0          1      )

 cart.    s(33) = (  0.0000000  0.0000000 -1.0000000 )
                  (  0.0000000  1.0000000  0.0000000 )
                  ( -1.0000000  0.0000000  0.0000000 )


      isym = 34     inv. 180 deg rotation - cart. axis [-1,0,1]  

 cryst.   s(34) = (     1          0          0      )
                  (     0          0         -1      )
                  (     0         -1          0      )

 cart.    s(34) = (  0.0000000  0.0000000  1.0000000 )
                  (  0.0000000  1.0000000  0.0000000 )
                  (  1.0000000  0.0000000  0.0000000 )


      isym = 35     inv.  90 deg rotation - cart. axis [0,1,0]   

 cryst.   s(35) = (     0          0          1      )
                  (    -1          0          0      )
                  (    -1          1         -1      )

 cart.    s(35) = (  0.0000000  0.0000000 -1.0000000 )
                  (  0.0000000 -1.0000000  0.0000000 )
                  (  1.0000000  0.0000000  0.0000000 )


      isym = 36     inv.  90 deg rotation - cart. axis [0,-1,0]  

 cryst.   s(36) = (     0         -1          0      )
                  (     1         -1          1      )
                  (     1          0          0      )

 cart.    s(36) = (  0.0000000  0.0000000  1.0000000 )
                  (  0.0000000 -1.0000000  0.0000000 )
                  ( -1.0000000  0.0000000  0.0000000 )


      isym = 37     inv. 180 deg rotation - cart. axis [0,1,1]   

 cryst.   s(37) = (     0         -1          0      )
                  (    -1          0          0      )
                  (     0          0          1      )

 cart.    s(37) = (  1.0000000  0.0000000  0.0000000 )
                  (  0.0000000  0.0000000 -1.0000000 )
                  (  0.0000000 -1.0000000  0.0000000 )


      isym = 38     inv. 180 deg rotation - cart. axis [0,1,-1]  

 cryst.   s(38) = (     1          0          0      )
                  (     0          1          0      )
                  (    -1          1         -1      )

 cart.    s(38) = (  1.0000000  0.0000000  0.0000000 )
                  (  0.0000000  0.0000000  1.0000000 )
                  (  0.0000000  1.0000000  0.0000000 )


      isym = 39     inv.  90 deg rotation - cart. axis [-1,0,0]  

 cryst.   s(39) = (     0          0          1      )
                  (     1         -1          1      )
                  (     0         -1          0      )

 cart.    s(39) = ( -1.0000000  0.0000000  0.0000000 )
                  (  0.0000000  0.0000000 -1.0000000 )
                  (  0.0000000  1.0000000  0.0000000 )


      isym = 40     inv.  90 deg rotation - cart. axis [1,0,0]   

 cryst.   s(40) = (    -1          1         -1      )
                  (     0          0         -1      )
                  (     1          0          0      )

 cart.    s(40) = ( -1.0000000  0.0000000  0.0000000 )
                  (  0.0000000  0.0000000  1.0000000 )
                  (  0.0000000 -1.0000000  0.0000000 )


      isym = 41     inv. 120 deg rotation - cart. axis [-1,-1,-1]

 cryst.   s(41) = (    -1          0          0      )
                  (     0          0          1      )
                  (     1         -1          1      )

 cart.    s(41) = (  0.0000000 -1.0000000  0.0000000 )
                  (  0.0000000  0.0000000 -1.0000000 )
                  ( -1.0000000  0.0000000  0.0000000 )


      isym = 42     inv. 120 deg rotation - cart. axis [-1,1,1]  

 cryst.   s(42) = (     1         -1          1      )
                  (     0         -1          0      )
                  (    -1          0          0      )

 cart.    s(42) = (  0.0000000  1.0000000  0.0000000 )
                  (  0.0000000  0.0000000 -1.0000000 )
                  (  1.0000000  0.0000000  0.0000000 )


      isym = 43     inv. 120 deg rotation - cart. axis [1,1,-1]  

 cryst.   s(43) = (     0          1          0      )
                  (    -1          1         -1      )
                  (     0          0         -1      )

 cart.    s(43) = (  0.0000000 -1.0000000  0.0000000 )
                  (  0.0000000  0.0000000  1.0000000 )
                  (  1.0000000  0.0000000  0.0000000 )


      isym = 44     inv. 120 deg rotation - cart. axis [1,-1,1]  

 cryst.   s(44) = (     0          0         -1      )
                  (     1          0          0      )
                  (     0          1          0      )

 cart.    s(44) = (  0.0000000  1.0000000  0.0000000 )
                  (  0.0000000  0.0000000  1.0000000 )
                  ( -1.0000000  0.0000000  0.0000000 )


      isym = 45     inv. 120 deg rotation - cart. axis [1,1,1]   

 cryst.   s(45) = (    -1          0          0      )
                  (    -1          1         -1      )
                  (     0          1          0      )

 cart.    s(45) = (  0.0000000  0.0000000 -1.0000000 )
                  ( -1.0000000  0.0000000  0.0000000 )
                  (  0.0000000 -1.0000000  0.0000000 )


      isym = 46     inv. 120 deg rotation - cart. axis [-1,1,-1] 

 cryst.   s(46) = (     0          1          0      )
                  (     0          0          1      )
                  (    -1          0          0      )

 cart.    s(46) = (  0.0000000  0.0000000 -1.0000000 )
                  (  1.0000000  0.0000000  0.0000000 )
                  (  0.0000000  1.0000000  0.0000000 )


      isym = 47     inv. 120 deg rotation - cart. axis [1,-1,-1] 

 cryst.   s(47) = (     0          0         -1      )
                  (     0         -1          0      )
                  (     1         -1          1      )

 cart.    s(47) = (  0.0000000  0.0000000  1.0000000 )
                  (  1.0000000  0.0000000  0.0000000 )
                  (  0.0000000 -1.0000000  0.0000000 )


      isym = 48     inv. 120 deg rotation - cart. axis [-1,-1,1] 

 cryst.   s(48) = (     1         -1          1      )
                  (     1          0          0      )
                  (     0          0         -1      )

 cart.    s(48) = (  0.0000000  0.0000000  1.0000000 )
                  ( -1.0000000  0.0000000  0.0000000 )
                  (  0.0000000  1.0000000  0.0000000 )


     point group O_h (m-3m) 
     there are 10 classes
     the character table:

       E     8C3   3C2   6C4   6C2'  i     8S6   3s_h  6S4   6s_d 
A_1g   1.00  1.00  1.00  1.00  1.00  1.00  1.00  1.00  1.00  1.00
A_2g   1.00  1.00  1.00 -1.00 -1.00  1.00  1.00  1.00 -1.00 -1.00
E_g    2.00 -1.00  2.00  0.00  0.00  2.00 -1.00  2.00  0.00  0.00
T_1g   3.00  0.00 -1.00  1.00 -1.00  3.00  0.00 -1.00  1.00 -1.00
T_2g   3.00  0.00 -1.00 -1.00  1.00  3.00  0.00 -1.00 -1.00  1.00
A_1u   1.00  1.00  1.00  1.00  1.00 -1.00 -1.00 -1.00 -1.00 -1.00
A_2u   1.00  1.00  1.00 -1.00 -1.00 -1.00 -1.00 -1.00  1.00  1.00
E_u    2.00 -1.00  2.00  0.00  0.00 -2.00  1.00 -2.00  0.00  0.00
T_1u   3.00  0.00 -1.00  1.00 -1.00 -3.00  0.00  1.00 -1.00  1.00
T_2u   3.00  0.00 -1.00 -1.00  1.00 -3.00  0.00  1.00  1.00 -1.00

     the symmetry operations in each class and the name of the first element:

     E        1
          identity                                               
     8C3     17   19   20   18   24   21   22   23
          120 deg rotation - cart. axis [-1,-1,-1]               
     3C2      2    4    3
          180 deg rotation - cart. axis [0,0,1]                  
     6C4      7    8   15   16   12   11
           90 deg rotation - cart. axis [0,0,-1]                 
     6C2'     5    6   14   13   10    9
          180 deg rotation - cart. axis [1,1,0]                  
     i       25
          inversion                                              
     8S6     41   43   44   42   48   45   46   47
          inv. 120 deg rotation - cart. axis [-1,-1,-1]          
     3s_h    26   28   27
          inv. 180 deg rotation - cart. axis [0,0,1]             
     6S4     31   32   39   40   36   35
          inv.  90 deg rotation - cart. axis [0,0,-1]            
     6s_d    29   30   38   37   34   33
          inv. 180 deg rotation - cart. axis [1,1,0]             

   Cartesian axes

     site n.     atom                  positions (alat units)
         1           Fe  tau(   1) = (   0.0000000   0.0000000   0.0000000  )

   Crystallographic axes

     site n.     atom                  positions (cryst. coord.)
         1           Fe  tau(   1) = (  0.0000000  0.0000000  0.0000000  )

     number of k points=    47  Methfessel-Paxton smearing, width (Ry)=  0.0100
                       cart. coord. in units 2pi/alat
        k(    1) = (   0.0000000   0.0000000   0.0000000), wk =   0.0010000
        k(    2) = (   0.0000000  -0.1000000   0.1000000), wk =   0.0120000
        k(    3) = (   0.0000000  -0.2000000   0.2000000), wk =   0.0120000
        k(    4) = (   0.0000000  -0.3000000   0.3000000), wk =   0.0120000
        k(    5) = (   0.0000000  -0.4000000   0.4000000), wk =   0.0120000
        k(    6) = (   0.0000000   0.5000000  -0.5000000), wk =   0.0060000
        k(    7) = (  -0.1000000  -0.1000000   0.2000000), wk =   0.0240000
        k(    8) = (  -0.1000000  -0.2000000   0.3000000), wk =   0.0480000
        k(    9) = (  -0.1000000  -0.3000000   0.4000000), wk =   0.0480000
        k(   10) = (  -0.1000000   0.6000000  -0.5000000), wk =   0.0480000
        k(   11) = (  -0.2000000  -0.2000000   0.4000000), wk =   0.0240000
        k(   12) = (  -0.2000000   0.7000000  -0.5000000), wk =   0.0480000
        k(   13) = (  -0.2000000   0.6000000  -0.4000000), wk =   0.0240000
        k(   14) = (  -0.3000000   0.7000000  -0.4000000), wk =   0.0240000
        k(   15) = (   0.0000000   0.0000000   0.2000000), wk =   0.0060000
        k(   16) = (   0.0000000  -0.1000000   0.3000000), wk =   0.0240000
        k(   17) = (   0.0000000  -0.2000000   0.4000000), wk =   0.0240000
        k(   18) = (   0.0000000  -0.3000000   0.5000000), wk =   0.0240000
        k(   19) = (   0.0000000   0.6000000  -0.4000000), wk =   0.0120000
        k(   20) = (  -0.1000000  -0.1000000   0.4000000), wk =   0.0240000
        k(   21) = (  -0.1000000  -0.2000000   0.5000000), wk =   0.0480000
        k(   22) = (  -0.1000000   0.7000000  -0.4000000), wk =   0.0480000
        k(   23) = (  -0.2000000   0.2000000   0.2000000), wk =   0.0080000
        k(   24) = (  -0.2000000   0.8000000  -0.4000000), wk =   0.0240000
        k(   25) = (  -0.2000000   0.7000000  -0.3000000), wk =   0.0240000
        k(   26) = (  -0.3000000   0.3000000   0.2000000), wk =   0.0240000
        k(   27) = (   0.6000000  -0.6000000   0.2000000), wk =   0.0240000
        k(   28) = (   0.6000000  -0.7000000   0.3000000), wk =   0.0240000
        k(   29) = (   0.5000000  -0.5000000   0.2000000), wk =   0.0120000
        k(   30) = (   0.5000000  -0.6000000   0.3000000), wk =   0.0480000
        k(   31) = (   0.4000000  -0.6000000   0.4000000), wk =   0.0080000
        k(   32) = (   0.0000000   0.0000000   0.4000000), wk =   0.0060000
        k(   33) = (   0.0000000  -0.1000000   0.5000000), wk =   0.0240000
        k(   34) = (   0.0000000  -0.2000000   0.6000000), wk =   0.0240000
        k(   35) = (   0.0000000   0.7000000  -0.3000000), wk =   0.0120000
        k(   36) = (  -0.1000000  -0.1000000   0.6000000), wk =   0.0240000
        k(   37) = (  -0.1000000   0.8000000  -0.3000000), wk =   0.0480000
        k(   38) = (  -0.2000000   0.8000000  -0.2000000), wk =   0.0080000
        k(   39) = (   0.6000000  -0.6000000   0.4000000), wk =   0.0080000
        k(   40) = (   0.5000000  -0.5000000   0.4000000), wk =   0.0120000
        k(   41) = (   0.0000000   0.0000000   0.6000000), wk =   0.0060000
        k(   42) = (   0.0000000  -0.1000000   0.7000000), wk =   0.0240000
        k(   43) = (   0.0000000   0.8000000  -0.2000000), wk =   0.0120000
        k(   44) = (  -0.1000000   0.9000000  -0.2000000), wk =   0.0240000
        k(   45) = (   0.0000000   0.0000000   0.8000000), wk =   0.0060000
        k(   46) = (   0.0000000   0.9000000  -0.1000000), wk =   0.0120000
        k(   47) = (   0.0000000   0.0000000  -1.0000000), wk =   0.0010000

                       cryst. coord.
        k(    1) = (   0.0000000   0.0000000   0.0000000), wk =   0.0010000
        k(    2) = (   0.0000000   0.0000000   0.1000000), wk =   0.0120000
        k(    3) = (   0.0000000   0.0000000   0.2000000), wk =   0.0120000
        k(    4) = (   0.0000000   0.0000000   0.3000000), wk =   0.0120000
        k(    5) = (   0.0000000   0.0000000   0.4000000), wk =   0.0120000
        k(    6) = (   0.0000000   0.0000000  -0.5000000), wk =   0.0060000
        k(    7) = (   0.0000000   0.1000000   0.2000000), wk =   0.0240000
        k(    8) = (   0.0000000   0.1000000   0.3000000), wk =   0.0480000
        k(    9) = (   0.0000000   0.1000000   0.4000000), wk =   0.0480000
        k(   10) = (   0.0000000   0.1000000  -0.5000000), wk =   0.0480000
        k(   11) = (   0.0000000   0.2000000   0.4000000), wk =   0.0240000
        k(   12) = (  -0.0000000   0.2000000  -0.5000000), wk =   0.0480000
        k(   13) = (   0.0000000   0.2000000  -0.4000000), wk =   0.0240000
        k(   14) = (  -0.0000000   0.3000000  -0.4000000), wk =   0.0240000
        k(   15) = (   0.1000000   0.1000000   0.1000000), wk =   0.0060000
        k(   16) = (   0.1000000   0.1000000   0.2000000), wk =   0.0240000
        k(   17) = (   0.1000000   0.1000000   0.3000000), wk =   0.0240000
        k(   18) = (   0.1000000   0.1000000   0.4000000), wk =   0.0240000
        k(   19) = (   0.1000000   0.1000000  -0.5000000), wk =   0.0120000
        k(   20) = (   0.1000000   0.2000000   0.3000000), wk =   0.0240000
        k(   21) = (   0.1000000   0.2000000   0.4000000), wk =   0.0480000
        k(   22) = (   0.1000000   0.2000000  -0.5000000), wk =   0.0480000
        k(   23) = (   0.1000000   0.3000000   0.1000000), wk =   0.0080000
        k(   24) = (   0.1000000   0.3000000  -0.5000000), wk =   0.0240000
        k(   25) = (   0.1000000   0.3000000  -0.4000000), wk =   0.0240000
        k(   26) = (   0.1000000   0.4000000   0.1000000), wk =   0.0240000
        k(   27) = (   0.1000000  -0.5000000   0.1000000), wk =   0.0240000
        k(   28) = (   0.1000000  -0.5000000   0.2000000), wk =   0.0240000
        k(   29) = (   0.1000000  -0.4000000   0.1000000), wk =   0.0120000
        k(   30) = (   0.1000000  -0.4000000   0.2000000), wk =   0.0480000
        k(   31) = (   0.1000000  -0.3000000   0.3000000), wk =   0.0080000
        k(   32) = (   0.2000000   0.2000000   0.2000000), wk =   0.0060000
        k(   33) = (   0.2000000   0.2000000   0.3000000), wk =   0.0240000
        k(   34) = (   0.2000000   0.2000000   0.4000000), wk =   0.0240000
        k(   35) = (   0.2000000   0.2000000  -0.5000000), wk =   0.0120000
        k(   36) = (   0.2000000   0.3000000   0.4000000), wk =   0.0240000
        k(   37) = (   0.2000000   0.3000000  -0.5000000), wk =   0.0480000
        k(   38) = (   0.2000000   0.4000000  -0.4000000), wk =   0.0080000
        k(   39) = (   0.2000000  -0.4000000   0.2000000), wk =   0.0080000
        k(   40) = (   0.2000000  -0.3000000   0.2000000), wk =   0.0120000
        k(   41) = (   0.3000000   0.3000000   0.3000000), wk =   0.0060000
        k(   42) = (   0.3000000   0.3000000   0.4000000), wk =   0.0240000
        k(   43) = (   0.3000000   0.3000000  -0.5000000), wk =   0.0120000
        k(   44) = (   0.3000000   0.4000000  -0.5000000), wk =   0.0240000
        k(   45) = (   0.4000000   0.4000000   0.4000000), wk =   0.0060000
        k(   46) = (   0.4000000   0.4000000  -0.5000000), wk =   0.0120000
        k(   47) = (  -0.5000000  -0.5000000  -0.5000000), wk =   0.0010000

     Dense  grid:    10425 G-vectors     FFT dimensions: (  30,  30,  30)

     Smooth grid:     2659 G-vectors     FFT dimensions: (  20,  20,  20)

     Dynamical RAM for                 wfc:       0.10 MB

     Dynamical RAM for     wfc (w. buffer):       9.54 MB

     Dynamical RAM for           str. fact:       0.16 MB

     Dynamical RAM for           local pot:       0.00 MB

     Dynamical RAM for          nlocal pot:       0.09 MB

     Dynamical RAM for                qrad:       1.61 MB

     Dynamical RAM for          rho,v,vnew:       2.19 MB

     Dynamical RAM for               rhoin:       0.73 MB

     Dynamical RAM for            rho*nmix:       5.09 MB

     Dynamical RAM for           G-vectors:       0.62 MB

     Dynamical RAM for          h,s,v(r/c):       0.07 MB

     Dynamical RAM for          <psi|beta>:       0.01 MB

     Dynamical RAM for                 psi:       0.20 MB

     Dynamical RAM for                hpsi:       0.20 MB

     Dynamical RAM for                spsi:       0.20 MB

     Dynamical RAM for      wfcinit/wfcrot:       0.21 MB

     Dynamical RAM for           addusdens:      29.91 MB

     Dynamical RAM for          addusforce:      29.91 MB

     Dynamical RAM for         addusstress:      32.21 MB

     Estimated static dynamical RAM per process >      16.48 MB

     Estimated max dynamical RAM per process >      53.79 MB

     Check: negative core charge=   -0.000042
     Generating pointlists ...
     new r_m :   0.3572 (alat units)  1.9149 (a.u.) for type    1

     Initial potential from superposition of free atoms

     starting charge      15.0000, renormalised to      16.0000
     Starting wfcs are   13 randomized atomic wfcs +    7 random wfcs

     total cpu time spent up to now is        1.8 secs

     Self-consistent Calculation

     iteration #  1     ecut=    40.00 Ry     beta= 0.50
     Davidson diagonalization with overlap

---- Real-time Memory Report at c_bands before calling an iterative solver
            57 MiB given to the printing process from OS
             0 MiB allocation reported by mallinfo(arena+hblkhd)
           348 MiB available memory on the node where the printing process lives
------------------
     ethr =  1.00E-02,  avg # of iterations =  5.4

     total cpu time spent up to now is        5.4 secs

     total energy              =    -249.50009480 Ry
     estimated scf accuracy    <       2.54281648 Ry

     total magnetization       =     3.40 Bohr mag/cell
     absolute magnetization    =     3.41 Bohr mag/cell

     iteration #  2     ecut=    40.00 Ry     beta= 0.50
     Davidson diagonalization with overlap

---- Real-time Memory Report at c_bands before calling an iterative solver
            71 MiB given to the printing process from OS
             0 MiB allocation reported by mallinfo(arena+hblkhd)
           317 MiB available memory on the node where the printing process lives
------------------
     ethr =  1.00E-02,  avg # of iterations =  2.0

     total cpu time spent up to now is        7.7 secs

     total energy              =    -250.06178712 Ry
     estimated scf accuracy    <       1.10803994 Ry

     total magnetization       =     2.81 Bohr mag/cell
     absolute magnetization    =     2.91 Bohr mag/cell

     iteration #  3     ecut=    40.00 Ry     beta= 0.50
     Davidson diagonalization with overlap

---- Real-time Memory Report at c_bands before calling an iterative solver
            71 MiB given to the printing process from OS
             0 MiB allocation reported by mallinfo(arena+hblkhd)
           317 MiB available memory on the node where the printing process lives
------------------
     ethr =  6.93E-03,  avg # of iterations =  1.0

     total cpu time spent up to now is        9.7 secs

     total energy              =    -250.32377681 Ry
     estimated scf accuracy    <       0.12853381 Ry

     total magnetization       =     2.84 Bohr mag/cell
     absolute magnetization    =     3.00 Bohr mag/cell

     iteration #  4     ecut=    40.00 Ry     beta= 0.50
     Davidson diagonalization with overlap

---- Real-time Memory Report at c_bands before calling an iterative solver
            71 MiB given to the printing process from OS
             0 MiB allocation reported by mallinfo(arena+hblkhd)
           316 MiB available memory on the node where the printing process lives
------------------
     ethr =  8.03E-04,  avg # of iterations =  1.0

     total cpu time spent up to now is       11.7 secs

     total energy              =    -250.34385974 Ry
     estimated scf accuracy    <       0.01425498 Ry

     total magnetization       =     2.47 Bohr mag/cell
     absolute magnetization    =     2.63 Bohr mag/cell

     iteration #  5     ecut=    40.00 Ry     beta= 0.50
     Davidson diagonalization with overlap

---- Real-time Memory Report at c_bands before calling an iterative solver
            71 MiB given to the printing process from OS
             0 MiB allocation reported by mallinfo(arena+hblkhd)
           316 MiB available memory on the node where the printing process lives
------------------
     ethr =  8.91E-05,  avg # of iterations =  1.2

     total cpu time spent up to now is       13.9 secs

     total energy              =    -250.34614598 Ry
     estimated scf accuracy    <       0.00504328 Ry

     total magnetization       =     2.38 Bohr mag/cell
     absolute magnetization    =     2.57 Bohr mag/cell

     iteration #  6     ecut=    40.00 Ry     beta= 0.50
     Davidson diagonalization with overlap

---- Real-time Memory Report at c_bands before calling an iterative solver
            71 MiB given to the printing process from OS
             0 MiB allocation reported by mallinfo(arena+hblkhd)
           316 MiB available memory on the node where the printing process lives
------------------
     ethr =  3.15E-05,  avg # of iterations =  1.2

     total cpu time spent up to now is       16.1 secs

     total energy              =    -250.34535769 Ry
     estimated scf accuracy    <       0.00635778 Ry

     total magnetization       =     2.33 Bohr mag/cell
     absolute magnetization    =     2.50 Bohr mag/cell

     iteration #  7     ecut=    40.00 Ry     beta= 0.50
     Davidson diagonalization with overlap

---- Real-time Memory Report at c_bands before calling an iterative solver
            71 MiB given to the printing process from OS
             0 MiB allocation reported by mallinfo(arena+hblkhd)
           316 MiB available memory on the node where the printing process lives
------------------
     ethr =  3.15E-05,  avg # of iterations =  1.0

     total cpu time spent up to now is       18.6 secs

     total energy              =    -250.34678273 Ry
     estimated scf accuracy    <       0.00033846 Ry

     total magnetization       =     2.18 Bohr mag/cell
     absolute magnetization    =     2.34 Bohr mag/cell

     iteration #  8     ecut=    40.00 Ry     beta= 0.50
     Davidson diagonalization with overlap

---- Real-time Memory Report at c_bands before calling an iterative solver
            71 MiB given to the printing process from OS
             0 MiB allocation reported by mallinfo(arena+hblkhd)
           316 MiB available memory on the node where the printing process lives
------------------
     ethr =  2.12E-06,  avg # of iterations =  1.9

     total cpu time spent up to now is       21.1 secs

     total energy              =    -250.34693305 Ry
     estimated scf accuracy    <       0.00008819 Ry

     total magnetization       =     2.14 Bohr mag/cell
     absolute magnetization    =     2.29 Bohr mag/cell

     iteration #  9     ecut=    40.00 Ry     beta= 0.50
     Davidson diagonalization with overlap

---- Real-time Memory Report at c_bands before calling an iterative solver
            72 MiB given to the printing process from OS
             0 MiB allocation reported by mallinfo(arena+hblkhd)
           316 MiB available memory on the node where the printing process lives
------------------
     ethr =  5.51E-07,  avg # of iterations =  1.0

     total cpu time spent up to now is       23.3 secs

     total energy              =    -250.34694009 Ry
     estimated scf accuracy    <       0.00002522 Ry

     total magnetization       =     2.14 Bohr mag/cell
     absolute magnetization    =     2.28 Bohr mag/cell

     iteration # 10     ecut=    40.00 Ry     beta= 0.50
     Davidson diagonalization with overlap

---- Real-time Memory Report at c_bands before calling an iterative solver
            72 MiB given to the printing process from OS
             0 MiB allocation reported by mallinfo(arena+hblkhd)
           316 MiB available memory on the node where the printing process lives
------------------
     ethr =  1.58E-07,  avg # of iterations =  1.0

     total cpu time spent up to now is       25.3 secs

     total energy              =    -250.34694132 Ry
     estimated scf accuracy    <       0.00000629 Ry

     total magnetization       =     2.13 Bohr mag/cell
     absolute magnetization    =     2.28 Bohr mag/cell

     iteration # 11     ecut=    40.00 Ry     beta= 0.50
     Davidson diagonalization with overlap

---- Real-time Memory Report at c_bands before calling an iterative solver
            72 MiB given to the printing process from OS
             0 MiB allocation reported by mallinfo(arena+hblkhd)
           316 MiB available memory on the node where the printing process lives
------------------
     ethr =  3.93E-08,  avg # of iterations =  1.0

     total cpu time spent up to now is       27.5 secs

     total energy              =    -250.34694187 Ry
     estimated scf accuracy    <       0.00000021 Ry

     total magnetization       =     2.13 Bohr mag/cell
     absolute magnetization    =     2.28 Bohr mag/cell

     iteration # 12     ecut=    40.00 Ry     beta= 0.50
     Davidson diagonalization with overlap

---- Real-time Memory Report at c_bands before calling an iterative solver
            72 MiB given to the printing process from OS
             0 MiB allocation reported by mallinfo(arena+hblkhd)
           316 MiB available memory on the node where the printing process lives
------------------
     ethr =  1.30E-09,  avg # of iterations =  1.6

     total cpu time spent up to now is       29.7 secs

     total energy              =    -250.34694205 Ry
     estimated scf accuracy    <       0.00000007 Ry

     total magnetization       =     2.13 Bohr mag/cell
     absolute magnetization    =     2.28 Bohr mag/cell

     iteration # 13     ecut=    40.00 Ry     beta= 0.50
     Davidson diagonalization with overlap

---- Real-time Memory Report at c_bands before calling an iterative solver
            72 MiB given to the printing process from OS
             0 MiB allocation reported by mallinfo(arena+hblkhd)
           316 MiB available memory on the node where the printing process lives
------------------
     ethr =  4.32E-10,  avg # of iterations =  1.3

     total cpu time spent up to now is       31.8 secs

     total energy              =    -250.34694209 Ry
     estimated scf accuracy    <          4.2E-09 Ry

     total magnetization       =     2.13 Bohr mag/cell
     absolute magnetization    =     2.28 Bohr mag/cell

     iteration # 14     ecut=    40.00 Ry     beta= 0.50
     Davidson diagonalization with overlap

---- Real-time Memory Report at c_bands before calling an iterative solver
            72 MiB given to the printing process from OS
             0 MiB allocation reported by mallinfo(arena+hblkhd)
           316 MiB available memory on the node where the printing process lives
------------------
     ethr =  2.65E-11,  avg # of iterations =  1.2

     total cpu time spent up to now is       33.9 secs

     total energy              =    -250.34694210 Ry
     estimated scf accuracy    <          7.6E-10 Ry

     total magnetization       =     2.13 Bohr mag/cell
     absolute magnetization    =     2.28 Bohr mag/cell

     iteration # 15     ecut=    40.00 Ry     beta= 0.50
     Davidson diagonalization with overlap

---- Real-time Memory Report at c_bands before calling an iterative solver
            72 MiB given to the printing process from OS
             0 MiB allocation reported by mallinfo(arena+hblkhd)
           316 MiB available memory on the node where the printing process lives
------------------
     ethr =  4.75E-12,  avg # of iterations =  1.0

     Magnetic moment per site  (integrated on atomic sphere of radius R)
     atom   1 (R=0.357)  charge= 14.3912  magn=  2.1981

     total cpu time spent up to now is       35.9 secs

     End of self-consistent calculation

 ------ SPIN UP ------------


          k = 0.0000 0.0000 0.0000 (   321 PWs)   bands (ev):

   -70.0297 -35.8232 -35.8232 -35.8232   9.6238  15.7794  15.7794  15.7794
    17.0487  17.0487  42.4527  42.4527  42.4527  47.9678  47.9678  50.1044
    50.1044  50.1044  50.7531  50.7531

     occupation numbers 
     1.0000   1.0000   1.0000   1.0000   1.0000   1.0000   1.0000   1.0000
     1.0000   1.0000  -0.0000  -0.0000  -0.0000  -0.0000  -0.0000  -0.0000
    -0.0000  -0.0000  -0.0000  -0.0000

          k = 0.0000-0.1000 0.1000 (   329 PWs)   bands (ev):

   -70.0224 -35.8626 -35.8363 -35.8231  10.0337  15.6689  15.7649  15.9982
    16.9473  17.0580  40.2988  41.8881  42.2692  46.8120  46.8984  47.2444
    49.4242  51.0750  53.4326  54.2055

     occupation numbers 
     1.0000   1.0000   1.0000   1.0000   1.0000   1.0000   1.0000   1.0000
     1.0000   1.0000  -0.0000  -0.0000  -0.0000  -0.0000  -0.0000  -0.0000
    -0.0000  -0.0000  -0.0000  -0.0000

          k = 0.0000-0.2000 0.2000 (   342 PWs)   bands (ev):

   -70.0031 -35.9650 -35.8705 -35.8230  11.1660  15.3876  15.6658  16.6014
    16.8443  17.0909  36.0468  40.0225  41.9149  43.4986  45.6873  47.5513
    51.1774  53.7303  57.7537  58.0962

     occupation numbers 
     1.0000   1.0000   1.0000   1.0000   1.0000   1.0000   1.0000   1.0000
     1.0000   1.0000  -0.0000  -0.0000  -0.0000  -0.0000  -0.0000  -0.0000
    -0.0000  -0.0000  -0.0000  -0.0000

          k = 0.0000-0.3000 0.3000 (   328 PWs)   bands (ev):

   -69.9792 -36.0901 -35.9126 -35.8229  12.5390  15.0544  15.8159  16.9453
    17.1494  17.4202  31.4757  37.9951  40.6939  41.6173  45.1332  49.8864
    51.9121  57.6854  62.1503  62.4693

     occupation numbers 
     1.0000   1.0000   1.0000   1.0000   1.0000   1.0000   1.0000   1.0000
     1.0000   1.0000  -0.0000  -0.0000  -0.0000  -0.0000  -0.0000  -0.0000
    -0.0000  -0.0000  -0.0000  -0.0000

          k = 0.0000-0.4000 0.4000 (   324 PWs)   bands (ev):

   -69.9599 -36.1903 -35.9465 -35.8229  13.1290  14.7957  16.9252  17.2120
    17.3851  18.1600  27.4216  36.5958  38.7434  41.4396  45.1054  51.8102
    53.1984  61.7411  62.5970  64.1310

     occupation numbers 
     1.0000   1.0000   1.0000   1.0000   1.0000   1.0000   1.0000   1.0000
     1.0000   0.0931  -0.0000  -0.0000  -0.0000  -0.0000  -0.0000  -0.0000
    -0.0000  -0.0000  -0.0000  -0.0000

          k = 0.0000 0.5000-0.5000 (   328 PWs)   bands (ev):

   -69.9525 -36.2283 -35.9595 -35.8228  13.1687  14.6992  17.0960  17.2398
    18.4659  18.5619  25.3784  36.1025  38.0308  41.3819  45.1694  51.6397
    56.5705  57.9676  64.0975  66.5605

     occupation numbers 
     1.0000   1.0000   1.0000   1.0000   1.0000   1.0000   1.0000   1.0000
    -0.0002  -0.0000  -0.0000  -0.0000  -0.0000  -0.0000  -0.0000  -0.0000
    -0.0000  -0.0000  -0.0000  -0.0000

          k =-0.1000-0.1000 0.2000 (   339 PWs)   bands (ev):

   -70.0091 -35.9332 -35.8506 -35.8327  10.8114  15.5344  15.5999  16.4563
    16.8082  17.1122  37.9738  39.1584  42.8862  43.3841  46.5541  48.2289
    51.2105  51.4525  55.9680  56.8992

     occupation numbers 
     1.0000   1.0000   1.0000   1.0000   1.0000   1.0000   1.0000   1.0000
     1.0000   1.0000  -0.0000  -0.0000  -0.0000  -0.0000  -0.0000  -0.0000
    -0.0000  -0.0000  -0.0000  -0.0000

          k =-0.1000-0.2000 0.3000 (   332 PWs)   bands (ev):

   -69.9875 -36.0402 -35.8915 -35.8365  12.1408  15.2272  15.4425  16.7857
    17.1802  17.2973  33.8980  36.8638  40.5979  42.9152  47.1585  48.1618
    53.4526  54.1347  58.4429  61.1879

     occupation numbers 
     1.0000   1.0000   1.0000   1.0000   1.0000   1.0000   1.0000   1.0000
     1.0000   1.0000  -0.0000  -0.0000  -0.0000  -0.0000  -0.0000  -0.0000
    -0.0000  -0.0000  -0.0000  -0.0000

          k =-0.1000-0.3000 0.4000 (   333 PWs)   bands (ev):

   -69.9659 -36.1438 -35.9376 -35.8374  13.1966  14.9273  15.8474  16.9637
    17.3152  18.3527  29.4997  35.3290  38.5336  42.7120  47.1977  49.3571
    54.5967  58.5870  60.9966  63.9128

     occupation numbers 
     1.0000   1.0000   1.0000   1.0000   1.0000   1.0000   1.0000   1.0000
     1.0000  -0.0083  -0.0000  -0.0000  -0.0000  -0.0000  -0.0000  -0.0000
    -0.0000  -0.0000  -0.0000  -0.0000

          k =-0.1000 0.6000-0.5000 (   329 PWs)   bands (ev):

   -69.9525 -36.2068 -35.9666 -35.8377  13.3698  14.7590  16.6048  17.0737
    17.6830  19.6832  26.0501  34.4742  37.3836  42.5882  47.2043  50.2848
    56.2749  59.1899  63.8385  64.9460

     occupation numbers 
     1.0000   1.0000   1.0000   1.0000   1.0000   1.0000   1.0000   1.0000
     1.0001  -0.0000  -0.0000  -0.0000  -0.0000  -0.0000  -0.0000  -0.0000
    -0.0000  -0.0000  -0.0000  -0.0000

          k =-0.2000-0.2000 0.4000 (   333 PWs)   bands (ev):

   -69.9682 -36.1153 -35.9336 -35.8543  13.3463  14.9705  15.2799  16.8246
    17.3233  18.5085  31.8547  32.6763  38.7033  43.5253  47.1953  51.4602
    53.8755  57.4302  58.3653  63.6442

     occupation numbers 
     1.0000   1.0000   1.0000   1.0000   1.0000   1.0000   1.0000   1.0000
     1.0000  -0.0000  -0.0000  -0.0000  -0.0000  -0.0000  -0.0000  -0.0000
    -0.0000  -0.0000  -0.0000  -0.0000

          k =-0.2000 0.7000-0.5000 (   328 PWs)   bands (ev):

   -69.9525 -36.1634 -35.9874 -35.8612  13.8831  14.8074  15.5733  17.0017
    17.4575  20.3149  28.0132  31.1340  37.4957  43.8367  47.8171  52.0188
    56.0444  58.5301  60.7001  64.9600

     occupation numbers 
     1.0000   1.0000   1.0000   1.0000   1.0000   1.0000   1.0000   1.0000
     1.0000  -0.0000  -0.0000  -0.0000  -0.0000  -0.0000  -0.0000  -0.0000
    -0.0000  -0.0000  -0.0000  -0.0000

          k =-0.2000 0.6000-0.4000 (   322 PWs)   bands (ev):

   -69.9465 -36.1784 -36.0121 -35.8628  13.8797  14.7898  15.8015  17.0872
    17.5775  21.9201  25.5633  30.6875  37.0695  43.9235  48.3440  51.6605
    55.8740  61.2120  63.6788  64.4068

     occupation numbers 
     1.0000   1.0000   1.0000   1.0000   1.0000   1.0000   1.0000   1.0000
     1.0000  -0.0000  -0.0000  -0.0000  -0.0000  -0.0000  -0.0000  -0.0000
    -0.0000  -0.0000  -0.0000  -0.0000

          k =-0.3000 0.7000-0.4000 (   322 PWs)   bands (ev):

   -69.9442 -36.1383 -36.0589 -35.8724  14.3251  14.7992  15.2528  17.1858
    17.4294  23.0086  26.4508  27.9645  37.0329  45.1267  46.8513  54.1983
    57.5743  58.3525  63.7135  64.5056

     occupation numbers 
     1.0000   1.0000   1.0000   1.0000   1.0000   1.0000   1.0000   1.0000
     1.0000  -0.0000  -0.0000  -0.0000  -0.0000  -0.0000  -0.0000  -0.0000
    -0.0000  -0.0000  -0.0000  -0.0000

          k = 0.0000 0.0000 0.2000 (   329 PWs)   bands (ev):

   -70.0152 -35.8733 -35.8496 -35.8496  10.4318  15.7864  15.7864  15.9996
    16.6833  17.1902  39.4825  41.4127  41.4127  43.7214  47.2645  47.2645
    50.2901  52.8304  53.9695  56.3304

     occupation numbers 
     1.0000   1.0000   1.0000   1.0000   1.0000   1.0000   1.0000   1.0000
     1.0000   1.0000  -0.0000  -0.0000  -0.0000  -0.0000  -0.0000  -0.0000
    -0.0000  -0.0000  -0.0000  -0.0000

          k = 0.0000-0.1000 0.3000 (   339 PWs)   bands (ev):

   -69.9964 -35.9646 -35.8843 -35.8551  11.5243  15.5884  15.7071  16.4566
    16.5469  17.3247  36.2664  39.2031  39.7522  43.2544  46.0976  47.2321
    52.4242  55.5648  56.7248  59.8703

     occupation numbers 
     1.0000   1.0000   1.0000   1.0000   1.0000   1.0000   1.0000   1.0000
     1.0000   1.0000  -0.0000  -0.0000  -0.0000  -0.0000  -0.0000  -0.0000
    -0.0000  -0.0000  -0.0000  -0.0000

          k = 0.0000-0.2000 0.4000 (   335 PWs)   bands (ev):

   -69.9731 -36.0846 -35.9270 -35.8535  12.8334  15.2836  15.5391  16.6992
    17.3728  17.5766  31.7577  37.4279  37.9618  44.2141  44.7597  47.5109
    56.4568  56.4816  60.2296  62.1361

     occupation numbers 
     1.0000   1.0000   1.0000   1.0000   1.0000   1.0000   1.0000   1.0000
     1.0000   1.0000  -0.0000  -0.0000  -0.0000  -0.0000  -0.0000  -0.0000
    -0.0000  -0.0000  -0.0000  -0.0000

          k = 0.0000-0.3000 0.5000 (   327 PWs)   bands (ev):

   -69.9543 -36.1809 -35.9614 -35.8518  13.3796  15.0430  15.8933  16.9193
    18.1265  18.6737  27.6281  36.2561  36.5172  44.0054  45.4631  47.7979
    55.4808  60.7066  61.4065  66.5819

     occupation numbers 
     1.0000   1.0000   1.0000   1.0000   1.0000   1.0000   1.0000   1.0000
     0.2398  -0.0000  -0.0000  -0.0000  -0.0000  -0.0000  -0.0000  -0.0000
    -0.0000  -0.0000  -0.0000  -0.0000

          k = 0.0000 0.6000-0.4000 (   330 PWs)   bands (ev):

   -69.9471 -36.2175 -35.9744 -35.8512  13.3994  14.9529  16.1552  16.9068
    18.4398  19.9457  25.4331  35.8425  35.9520  43.7714  46.2335  47.7399
    54.7008  61.2347  66.5009  66.7607

     occupation numbers 
     1.0000   1.0000   1.0000   1.0000   1.0000   1.0000   1.0000   1.0000
    -0.0006  -0.0000  -0.0000  -0.0000  -0.0000  -0.0000  -0.0000  -0.0000
    -0.0000  -0.0000  -0.0000  -0.0000

          k =-0.1000-0.1000 0.4000 (   327 PWs)   bands (ev):

   -69.9759 -36.0447 -35.9239 -35.8761  12.7027  15.3363  15.6306  16.3866
    17.1371  17.6651  34.1181  35.0636  40.0365  41.4345  45.6997  50.0026
    53.0271  58.0130  59.3039  60.7979

     occupation numbers 
     1.0000   1.0000   1.0000   1.0000   1.0000   1.0000   1.0000   1.0000
     1.0000   1.0001  -0.0000  -0.0000  -0.0000  -0.0000  -0.0000  -0.0000
    -0.0000  -0.0000  -0.0000  -0.0000

          k =-0.1000-0.2000 0.5000 (   327 PWs)   bands (ev):

   -69.9554 -36.1328 -35.9719 -35.8794  13.6378  15.0131  15.5402  16.6921
    17.6163  18.8872  30.0123  33.1397  38.9523  42.1166  45.3334  50.6383
    54.9106  56.9223  62.2446  64.6855

     occupation numbers 
     1.0000   1.0000   1.0000   1.0000   1.0000   1.0000   1.0000   1.0000
     1.0000  -0.0000  -0.0000  -0.0000  -0.0000  -0.0000  -0.0000  -0.0000
    -0.0000  -0.0000  -0.0000  -0.0000

          k =-0.1000 0.7000-0.4000 (   327 PWs)   bands (ev):

   -69.9427 -36.1879 -36.0030 -35.8789  13.7697  15.1107  15.4691  16.8492
    18.0603  20.9068  26.3238  32.2513  38.0263  43.3124  45.3307  49.8273
    53.2622  61.9481  64.3786  67.4929

     occupation numbers 
     1.0000   1.0000   1.0000   1.0000   1.0000   1.0000   1.0000   1.0000
     0.6341  -0.0000  -0.0000  -0.0000  -0.0000  -0.0000  -0.0000  -0.0000
    -0.0000  -0.0000  -0.0000  -0.0000

          k =-0.2000 0.2000 0.2000 (   336 PWs)   bands (ev):

   -69.9930 -36.0249 -35.8532 -35.8532  11.8720  15.2494  15.2494  17.0034
    17.0034  17.2940  36.0194  36.0194  38.9111  44.6758  50.0637  50.0637
    51.0876  51.0876  55.7117  62.4094

     occupation numbers 
     1.0000   1.0000   1.0000   1.0000   1.0000   1.0000   1.0000   1.0000
     1.0000   1.0000  -0.0000  -0.0000  -0.0000  -0.0000  -0.0000  -0.0000
    -0.0000  -0.0000  -0.0000  -0.0000

          k =-0.2000 0.8000-0.4000 (   323 PWs)   bands (ev):

   -69.9410 -36.1549 -36.0360 -35.8891  14.2699  14.6111  15.4135  16.9652
    17.7121  21.2234  28.3799  29.2750  40.6361  40.8643  44.5860  51.7565
    55.7719  56.7450  66.0957  67.4925

     occupation numbers 
     1.0000   1.0000   1.0000   1.0000   1.0000   1.0000   1.0000   1.0000
     1.0004  -0.0000  -0.0000  -0.0000  -0.0000  -0.0000  -0.0000  -0.0000
    -0.0000  -0.0000  -0.0000  -0.0000

          k =-0.2000 0.7000-0.3000 (   324 PWs)   bands (ev):

   -69.9355 -36.1529 -36.0730 -35.8907  14.3179  14.9039  15.0151  17.1821
    17.7407  23.4995  25.7366  28.5395  40.2455  42.4096  43.4377  50.6451
    56.1563  61.4234  62.5005  68.4112

     occupation numbers 
     1.0000   1.0000   1.0000   1.0000   1.0000   1.0000   1.0000   1.0000
     1.0011  -0.0000  -0.0000  -0.0000  -0.0000  -0.0000  -0.0000  -0.0000
    -0.0000  -0.0000  -0.0000  -0.0000

          k =-0.3000 0.3000 0.2000 (   335 PWs)   bands (ev):

   -69.9730 -36.1110 -35.9049 -35.8564  13.2116  14.9284  15.1242  17.0236
    17.1451  18.4536  31.9033  34.4141  36.1735  45.5206  49.9636  50.8625
    52.8997  55.0144  57.4476  65.6724

     occupation numbers 
     1.0000   1.0000   1.0000   1.0000   1.0000   1.0000   1.0000   1.0000
     1.0000  -0.0004  -0.0000  -0.0000  -0.0000  -0.0000  -0.0000  -0.0000
    -0.0000  -0.0000  -0.0000  -0.0000

          k = 0.6000-0.6000 0.2000 (   322 PWs)   bands (ev):

   -69.9569 -36.1686 -35.9582 -35.8590  13.7130  14.7144  15.8782  17.1189
    17.2258  20.0011  27.8055  33.3571  34.6885  45.4432  49.7834  52.7520
    53.6527  59.8978  61.3452  62.3612

     occupation numbers 
     1.0000   1.0000   1.0000   1.0000   1.0000   1.0000   1.0000   1.0000
     1.0000  -0.0000  -0.0000  -0.0000  -0.0000  -0.0000  -0.0000  -0.0000
    -0.0000  -0.0000  -0.0000  -0.0000

          k = 0.6000-0.7000 0.3000 (   328 PWs)   bands (ev):

   -69.9586 -36.1459 -35.9456 -35.8849  14.1669  14.7618  15.0241  17.1116
    17.2390  20.1415  30.1342  30.8805  33.9673  47.4305  50.9344  52.8996
    54.8807  57.1891  58.4245  63.9391

     occupation numbers 
     1.0000   1.0000   1.0000   1.0000   1.0000   1.0000   1.0000   1.0000
     1.0000  -0.0000  -0.0000  -0.0000  -0.0000  -0.0000  -0.0000  -0.0000
    -0.0000  -0.0000  -0.0000  -0.0000

          k = 0.5000-0.5000 0.2000 (   326 PWs)   bands (ev):

   -69.9507 -36.1881 -35.9809 -35.8600  13.6932  14.6400  16.4524  17.1642
    17.2522  21.3111  25.5143  32.9866  34.1732  45.3378  49.8122  52.4754
    56.4863  59.0698  63.2108  65.1000

     occupation numbers 
     1.0000   1.0000   1.0000   1.0000   1.0000   1.0000   1.0000   1.0000
     1.0000  -0.0000  -0.0000  -0.0000  -0.0000  -0.0000  -0.0000  -0.0000
    -0.0000  -0.0000  -0.0000  -0.0000

          k = 0.5000-0.6000 0.3000 (   332 PWs)   bands (ev):

   -69.9496 -36.1431 -36.0033 -35.8942  14.2256  14.6883  15.5392  17.1966
    17.2896  22.3712  26.6678  29.7936  33.1537  47.9941  51.5250  53.8085
    56.8407  59.9172  61.2575  62.6887

     occupation numbers 
     1.0000   1.0000   1.0000   1.0000   1.0000   1.0000   1.0000   1.0000
     1.0000  -0.0000  -0.0000  -0.0000  -0.0000  -0.0000  -0.0000  -0.0000
    -0.0000  -0.0000  -0.0000  -0.0000

          k = 0.4000-0.6000 0.4000 (   324 PWs)   bands (ev):

   -69.9469 -36.0773 -36.0773 -35.9070  14.3826  15.0579  15.0579  17.2716
    17.2716  25.1839  25.1839  27.4891  32.8248  50.0319  50.0319  56.4125
    59.1752  59.1752  61.7531  62.3464

     occupation numbers 
     1.0000   1.0000   1.0000   1.0000   1.0000   1.0000   1.0000   1.0000
     1.0000  -0.0000  -0.0000  -0.0000  -0.0000  -0.0000  -0.0000  -0.0000
    -0.0000  -0.0000  -0.0000  -0.0000

          k = 0.0000 0.0000 0.4000 (   329 PWs)   bands (ev):

   -69.9789 -35.9820 -35.9202 -35.9202  12.4645  15.7222  15.9712  15.9712
    16.5867  17.6640  36.4596  37.3063  37.3063  39.2666  49.4531  49.4531
    50.9485  56.2722  59.9896  61.3352

     occupation numbers 
     1.0000   1.0000   1.0000   1.0000   1.0000   1.0000   1.0000   1.0000
     1.0000   1.0001  -0.0000  -0.0000  -0.0000  -0.0000  -0.0000  -0.0000
    -0.0000  -0.0000  -0.0000  -0.0000

          k = 0.0000-0.1000 0.5000 (   328 PWs)   bands (ev):

   -69.9572 -36.0714 -35.9644 -35.9316  13.4857  15.0832  15.9058  16.3832
    17.2698  18.3806  32.5680  35.2010  36.3165  39.5508  48.7449  50.3800
    54.3171  54.6104  60.2299  64.3976

     occupation numbers 
     1.0000   1.0000   1.0000   1.0000   1.0000   1.0000   1.0000   1.0000
     1.0000  -0.0041  -0.0000  -0.0000  -0.0000  -0.0000  -0.0000  -0.0000
    -0.0000  -0.0000  -0.0000  -0.0000

          k = 0.0000-0.2000 0.6000 (   325 PWs)   bands (ev):

   -69.9396 -36.1565 -36.0000 -35.9272  13.8692  14.8529  15.7382  16.6436
    18.0406  20.2036  28.2808  33.6738  35.6023  41.4199  47.8514  48.8907
    52.2446  59.6421  64.8358  66.6854

     occupation numbers 
     1.0000   1.0000   1.0000   1.0000   1.0000   1.0000   1.0000   1.0000
     0.7458  -0.0000  -0.0000  -0.0000  -0.0000  -0.0000  -0.0000  -0.0000
    -0.0000  -0.0000  -0.0000  -0.0000

          k = 0.0000 0.7000-0.3000 (   328 PWs)   bands (ev):

   -69.9329 -36.1893 -36.0135 -35.9249  13.8261  14.9231  15.6699  16.6702
    18.3717  22.0577  25.6615  33.0955  35.3379  42.8655  47.1002  47.5477
    51.9445  64.2244  66.3873  67.8696

     occupation numbers 
     1.0000   1.0000   1.0000   1.0000   1.0000   1.0000   1.0000   1.0000
    -0.0052  -0.0000  -0.0000  -0.0000  -0.0000  -0.0000  -0.0000  -0.0000
    -0.0000  -0.0000  -0.0000  -0.0000

          k =-0.1000-0.1000 0.6000 (   327 PWs)   bands (ev):

   -69.9384 -36.1213 -36.0175 -35.9502  14.0169  14.5491  16.0058  16.7104
    17.7014  20.0463  30.7786  31.2754  37.2030  38.7940  47.9564  50.3928
    54.4963  55.6465  63.2680  68.2738

     occupation numbers 
     1.0000   1.0000   1.0000   1.0000   1.0000   1.0000   1.0000   1.0000
     1.0003  -0.0000  -0.0000  -0.0000  -0.0000  -0.0000  -0.0000  -0.0000
    -0.0000  -0.0000  -0.0000  -0.0000

          k =-0.1000 0.8000-0.3000 (   327 PWs)   bands (ev):

   -69.9268 -36.1578 -36.0562 -35.9497  14.0536  14.4250  15.8351  17.0358
    18.0779  22.6632  27.0144  30.1121  37.1169  40.3186  45.5018  49.0490
    55.0048  60.3209  66.3326  68.5421

     occupation numbers 
     1.0000   1.0000   1.0000   1.0000   1.0000   1.0000   1.0000   1.0000
     0.5264  -0.0000  -0.0000  -0.0000  -0.0000  -0.0000  -0.0000  -0.0000
    -0.0000  -0.0000  -0.0000  -0.0000

          k =-0.2000 0.8000-0.2000 (   324 PWs)   bands (ev):

   -69.9219 -36.1212 -36.1212 -35.9519  14.1984  14.1984  15.7183  17.7076
    17.7076  25.6191  25.6191  27.5584  39.1841  39.1841  43.6630  48.9119
    59.2733  61.1007  61.1007  72.0621

     occupation numbers 
     1.0000   1.0000   1.0000   1.0000   1.0000   1.0000   1.0000   1.0003
     1.0003  -0.0000  -0.0000  -0.0000  -0.0000  -0.0000  -0.0000  -0.0000
    -0.0000  -0.0000  -0.0000  -0.0000

          k = 0.6000-0.6000 0.4000 (   333 PWs)   bands (ev):

   -69.9508 -36.1253 -35.9553 -35.9553  14.6856  14.6856  14.9890  17.2417
    17.2417  22.3920  29.0585  29.0585  30.3457  51.3321  53.5770  53.5770
    56.0275  59.2264  59.2264  63.8093

     occupation numbers 
     1.0000   1.0000   1.0000   1.0000   1.0000   1.0000   1.0000   1.0000
     1.0000  -0.0000  -0.0000  -0.0000  -0.0000  -0.0000  -0.0000  -0.0000
    -0.0000  -0.0000  -0.0000  -0.0000

          k = 0.5000-0.5000 0.4000 (   328 PWs)   bands (ev):

   -69.9479 -36.0844 -36.0154 -35.9590  14.6642  14.6730  15.1916  17.2625
    17.2723  24.7402  26.2480  28.6927  29.7044  52.2939  54.8876  55.6960
    56.3336  58.3845  60.8509  62.9158

     occupation numbers 
     1.0000   1.0000   1.0000   1.0000   1.0000   1.0000   1.0000   1.0000
     1.0000  -0.0000  -0.0000  -0.0000  -0.0000  -0.0000  -0.0000  -0.0000
    -0.0000  -0.0000  -0.0000  -0.0000

          k = 0.0000 0.0000 0.6000 (   321 PWs)   bands (ev):

   -69.9374 -36.0717 -36.0104 -36.0104  13.8837  14.5478  16.5937  16.5937
    17.3336  19.6699  32.8682  32.8682  34.7185  36.7683  49.5140  52.3087
    54.0394  54.0394  60.0961  70.6604

     occupation numbers 
     1.0000   1.0000   1.0000   1.0000   1.0000   1.0000   1.0000   1.0000
     1.0000  -0.0000  -0.0000  -0.0000  -0.0000  -0.0000  -0.0000  -0.0000
    -0.0000  -0.0000  -0.0000  -0.0000

          k = 0.0000-0.1000 0.7000 (   328 PWs)   bands (ev):

   -69.9214 -36.1266 -36.0475 -36.0189  13.9092  14.0952  16.7214  16.9665
    17.9429  21.9184  29.2792  31.1879  34.8550  37.3933  45.5202  51.8275
    55.3678  58.5215  63.4052  70.4816

     occupation numbers 
     1.0000   1.0000   1.0000   1.0000   1.0000   1.0000   1.0000   1.0000
     1.0274  -0.0000  -0.0000  -0.0000  -0.0000  -0.0000  -0.0000  -0.0000
    -0.0000  -0.0000  -0.0000  -0.0000

          k = 0.0000 0.8000-0.2000 (   328 PWs)   bands (ev):

   -69.9153 -36.1543 -36.0616 -36.0152  13.7992  14.0129  16.7015  17.0846
    18.2882  24.3654  26.2253  30.5484  34.8200  38.6431  43.4054  51.5213
    55.4656  62.5191  66.3119  67.6448

     occupation numbers 
     1.0000   1.0000   1.0000   1.0000   1.0000   1.0000   1.0000   1.0000
    -0.0270  -0.0000  -0.0000  -0.0000  -0.0000  -0.0000  -0.0000  -0.0000
    -0.0000  -0.0000  -0.0000  -0.0000

          k =-0.1000 0.9000-0.2000 (   334 PWs)   bands (ev):

   -69.9109 -36.1324 -36.0956 -36.0289  13.7670  13.7781  16.8200  17.6298
    18.0899  24.6284  27.9203  28.4735  35.7106  36.9545  42.3699  52.1959
    58.9379  60.0705  65.1376  68.0070

     occupation numbers 
     1.0000   1.0000   1.0000   1.0000   1.0000   1.0000   1.0000   1.0000
     0.4518  -0.0000  -0.0000  -0.0000  -0.0000  -0.0000  -0.0000  -0.0000
    -0.0000  -0.0000  -0.0000  -0.0000

          k = 0.0000 0.0000 0.8000 (   338 PWs)   bands (ev):

   -69.9067 -36.1091 -36.0858 -36.0858  13.5986  13.6233  17.5942  17.5942
    17.9547  24.1238  29.3546  29.3546  33.9047  35.5858  41.7580  54.4088
    59.6941  59.6941  63.2986  69.5312

     occupation numbers 
     1.0000   1.0000   1.0000   1.0000   1.0000   1.0000   1.0000   1.0000
     1.0173  -0.0000  -0.0000  -0.0000  -0.0000  -0.0000  -0.0000  -0.0000
    -0.0000  -0.0000  -0.0000  -0.0000

          k = 0.0000 0.9000-0.1000 (   334 PWs)   bands (ev):

   -69.9010 -36.1260 -36.1004 -36.0876  13.4465  13.4620  17.7281  17.8529
    18.2212  26.6300  27.2021  28.6403  34.1859  35.2834  39.9762  54.7860
    60.7072  62.6661  66.1433  66.2898

     occupation numbers 
     1.0000   1.0000   1.0000   1.0000   1.0000   1.0000   1.0007   1.0192
    -0.0273  -0.0000  -0.0000  -0.0000  -0.0000  -0.0000  -0.0000  -0.0000
    -0.0000  -0.0000  -0.0000  -0.0000

          k = 0.0000 0.0000-1.0000 (   370 PWs)   bands (ev):

   -69.8956 -36.1151 -36.1151 -36.1151  13.2780  13.2780  18.1957  18.1957
    18.1957  27.8848  27.8848  27.8848  33.6750  33.6750  38.6896  55.8899
    65.5994  65.5994  65.5994  66.2875

     occupation numbers 
     1.0000   1.0000   1.0000   1.0000   1.0000   1.0000   0.0017   0.0017
     0.0017  -0.0000  -0.0000  -0.0000  -0.0000  -0.0000  -0.0000  -0.0000
    -0.0000  -0.0000  -0.0000  -0.0000

 ------ SPIN DOWN ----------


          k = 0.0000 0.0000 0.0000 (   321 PWs)   bands (ev):

   -67.2791 -33.1275 -33.1275 -33.1275   9.7493  17.7590  17.7590  17.7590
    19.7683  19.7683  42.1796  42.1796  42.1796  48.1450  48.1450  50.8506
    50.8506  51.8245  51.8245  51.8245

     occupation numbers 
     1.0000   1.0000   1.0000   1.0000   1.0000   1.0020   1.0020   1.0020
    -0.0000  -0.0000  -0.0000  -0.0000  -0.0000  -0.0000  -0.0000  -0.0000
    -0.0000  -0.0000  -0.0000  -0.0000

          k = 0.0000-0.1000 0.1000 (   329 PWs)   bands (ev):

   -67.2710 -33.1718 -33.1420 -33.1275  10.1628  17.6234  17.7264  18.0001
    19.6301  19.7785  40.3592  41.7315  42.1424  47.1744  47.6778  47.9867
    49.6277  51.7018  54.2916  55.1753

     occupation numbers 
     1.0000   1.0000   1.0000   1.0000   1.0000   1.0000   1.0007   0.9214
    -0.0000  -0.0000  -0.0000  -0.0000  -0.0000  -0.0000  -0.0000  -0.0000
    -0.0000  -0.0000  -0.0000  -0.0000

          k = 0.0000-0.2000 0.2000 (   342 PWs)   bands (ev):

   -67.2498 -33.2868 -33.1799 -33.1275  11.3267  17.2809  17.5498  18.6693
    19.4416  19.8190  36.5337  40.0477  42.0663  44.3080  46.3069  47.7188
    51.4716  54.1452  58.5429  59.0770

     occupation numbers 
     1.0000   1.0000   1.0000   1.0000   1.0000   1.0000   1.0000  -0.0000
    -0.0000  -0.0000  -0.0000  -0.0000  -0.0000  -0.0000  -0.0000  -0.0000
    -0.0000  -0.0000  -0.0000  -0.0000

          k = 0.0000-0.3000 0.3000 (   328 PWs)   bands (ev):

   -67.2235 -33.4271 -33.2264 -33.1276  12.9270  16.8802  17.3552  19.4727
    19.5907  19.8978  32.2689  38.0451  41.4051  41.9996  45.7317  50.0616
    52.1798  57.9464  63.0021  63.0517

     occupation numbers 
     1.0000   1.0000   1.0000   1.0000   1.0000   1.0000   1.0000  -0.0000
    -0.0000  -0.0000  -0.0000  -0.0000  -0.0000  -0.0000  -0.0000  -0.0000
    -0.0000  -0.0000  -0.0000  -0.0000

          k = 0.0000-0.4000 0.4000 (   324 PWs)   bands (ev):

   -67.2022 -33.5391 -33.2639 -33.1276  14.1367  16.5723  17.8693  19.6023
    19.9870  20.4402  28.5423  36.6130  39.3474  41.9590  45.7457  51.9334
    53.4310  62.2859  62.7921  64.8349

     occupation numbers 
     1.0000   1.0000   1.0000   1.0000   1.0000   1.0000   1.0247  -0.0000
    -0.0000  -0.0000  -0.0000  -0.0000  -0.0000  -0.0000  -0.0000  -0.0000
    -0.0000  -0.0000  -0.0000  -0.0000

          k = 0.0000 0.5000-0.5000 (   328 PWs)   bands (ev):

   -67.1940 -33.5816 -33.2782 -33.1277  14.4307  16.4581  18.6324  19.6406
    20.0276  20.7977  26.8020  36.1007  38.5841  41.9458  45.8397  51.6860
    56.6835  58.6232  64.9627  66.8083

     occupation numbers 
     1.0000   1.0000   1.0000   1.0000   1.0000   1.0000  -0.0000  -0.0000
    -0.0000  -0.0000  -0.0000  -0.0000  -0.0000  -0.0000  -0.0000  -0.0000
    -0.0000  -0.0000  -0.0000  -0.0000

          k =-0.1000-0.1000 0.2000 (   339 PWs)   bands (ev):

   -67.2564 -33.2510 -33.1579 -33.1382  10.9550  17.4469  17.5247  18.4948
    19.4287  19.8380  38.2615  39.4317  42.7605  44.1415  46.8469  48.8378
    51.6524  51.8257  56.5994  57.6588

     occupation numbers 
     1.0000   1.0000   1.0000   1.0000   1.0000   1.0000   1.0000  -0.0001
    -0.0000  -0.0000  -0.0000  -0.0000  -0.0000  -0.0000  -0.0000  -0.0000
    -0.0000  -0.0000  -0.0000  -0.0000

          k =-0.1000-0.2000 0.3000 (   332 PWs)   bands (ev):

   -67.2326 -33.3710 -33.2033 -33.1426  12.3749  17.0747  17.2461  19.3149
    19.3695  19.9433  34.5247  37.2420  41.1992  43.0468  47.5334  48.5981
    53.7193  54.6070  58.8932  61.8887

     occupation numbers 
     1.0000   1.0000   1.0000   1.0000   1.0000   1.0000   1.0000  -0.0000
    -0.0000  -0.0000  -0.0000  -0.0000  -0.0000  -0.0000  -0.0000  -0.0000
    -0.0000  -0.0000  -0.0000  -0.0000

          k =-0.1000-0.3000 0.4000 (   333 PWs)   bands (ev):

   -67.2088 -33.4870 -33.2543 -33.1437  13.8978  16.7101  17.2121  19.4568
    20.0036  20.4327  30.4121  35.7076  39.0443  43.0338  47.7218  49.6208
    54.7880  58.9789  61.5352  64.6076

     occupation numbers 
     1.0000   1.0000   1.0000   1.0000   1.0000   1.0000   1.0000  -0.0000
    -0.0000  -0.0000  -0.0000  -0.0000  -0.0000  -0.0000  -0.0000  -0.0000
    -0.0000  -0.0000  -0.0000  -0.0000

          k =-0.1000 0.6000-0.5000 (   329 PWs)   bands (ev):

   -67.1941 -33.5575 -33.2864 -33.1442  14.5996  16.5065  17.8331  19.5926
    20.1408  21.3466  27.3229  34.8340  37.8193  43.0068  47.7855  50.3960
    56.6333  59.6170  64.2069  65.6587

     occupation numbers 
     1.0000   1.0000   1.0000   1.0000   1.0000   1.0000   1.0133  -0.0000
    -0.0000  -0.0000  -0.0000  -0.0000  -0.0000  -0.0000  -0.0000  -0.0000
    -0.0000  -0.0000  -0.0000  -0.0000

          k =-0.2000-0.2000 0.4000 (   333 PWs)   bands (ev):

   -67.2113 -33.4549 -33.2505 -33.1624  13.8344  16.7421  16.9478  19.3217
    19.9924  20.5624  32.5912  33.3127  39.2247  43.6334  47.5598  51.7882
    54.3661  57.7700  58.8291  64.4034

     occupation numbers 
     1.0000   1.0000   1.0000   1.0000   1.0000   1.0000   1.0000  -0.0000
    -0.0000  -0.0000  -0.0000  -0.0000  -0.0000  -0.0000  -0.0000  -0.0000
    -0.0000  -0.0000  -0.0000  -0.0000

          k =-0.2000 0.7000-0.5000 (   328 PWs)   bands (ev):

   -67.1941 -33.5086 -33.3105 -33.1700  14.9928  16.4955  16.9670  19.4951
    20.0616  22.0138  28.9871  31.8033  37.9690  44.0400  48.0563  52.4535
    56.4849  59.0455  61.1016  65.5036

     occupation numbers 
     1.0000   1.0000   1.0000   1.0000   1.0000   1.0000   1.0000  -0.0000
    -0.0000  -0.0000  -0.0000  -0.0000  -0.0000  -0.0000  -0.0000  -0.0000
    -0.0000  -0.0000  -0.0000  -0.0000

          k =-0.2000 0.6000-0.4000 (   322 PWs)   bands (ev):

   -67.1875 -33.5254 -33.3381 -33.1719  15.2501  16.4783  17.1628  19.6043
    20.0979  23.1972  26.8347  31.3457  37.5244  44.1861  48.4452  52.1567
    56.6410  61.1728  64.0767  64.9961

     occupation numbers 
     1.0000   1.0000   1.0000   1.0000   1.0000   1.0000   1.0000  -0.0000
    -0.0000  -0.0000  -0.0000  -0.0000  -0.0000  -0.0000  -0.0000  -0.0000
    -0.0000  -0.0000  -0.0000  -0.0000

          k =-0.3000 0.7000-0.4000 (   322 PWs)   bands (ev):

   -67.1850 -33.4802 -33.3910 -33.1824  15.7830  16.3541  16.7145  19.6900
    19.9684  24.2965  27.4785  28.8220  37.5470  45.2647  47.0040  54.9394
    57.8856  58.8679  63.9771  64.7812

     occupation numbers 
     1.0000   1.0000   1.0000   1.0000   1.0000   1.0000   1.0000  -0.0000
    -0.0000  -0.0000  -0.0000  -0.0000  -0.0000  -0.0000  -0.0000  -0.0000
    -0.0000  -0.0000  -0.0000  -0.0000

          k = 0.0000 0.0000 0.2000 (   329 PWs)   bands (ev):

   -67.2631 -33.1844 -33.1567 -33.1567  10.5665  17.7366  17.7366  18.0050
    19.2896  19.9401  39.5331  41.5685  41.5685  44.1089  47.8364  47.8364
    51.0007  52.8150  54.6955  57.1681

     occupation numbers 
     1.0000   1.0000   1.0000   1.0000   1.0000   1.0010   1.0010   0.9049
    -0.0000  -0.0000  -0.0000  -0.0000  -0.0000  -0.0000  -0.0000  -0.0000
    -0.0000  -0.0000  -0.0000  -0.0000

          k = 0.0000-0.1000 0.3000 (   339 PWs)   bands (ev):

   -67.2425 -33.2866 -33.1952 -33.1632  11.6994  17.4933  17.6274  18.6074
    18.9248  20.0716  36.7364  39.4345  40.2424  43.6426  46.5633  47.6035
    52.9286  55.7107  57.3106  60.6568

     occupation numbers 
     1.0000   1.0000   1.0000   1.0000   1.0000   1.0000   1.0000  -0.0000
    -0.0000  -0.0000  -0.0000  -0.0000  -0.0000  -0.0000  -0.0000  -0.0000
    -0.0000  -0.0000  -0.0000  -0.0000

          k = 0.0000-0.2000 0.4000 (   335 PWs)   bands (ev):

   -67.2169 -33.4208 -33.2424 -33.1616  13.2510  17.1272  17.2933  19.0286
    19.5353  20.2101  32.5385  37.6374  38.5847  44.6124  45.2310  47.8941
    56.7182  56.8079  60.7588  62.7645

     occupation numbers 
     1.0000   1.0000   1.0000   1.0000   1.0000   1.0000   1.0000  -0.0000
    -0.0000  -0.0000  -0.0000  -0.0000  -0.0000  -0.0000  -0.0000  -0.0000
    -0.0000  -0.0000  -0.0000  -0.0000

          k = 0.0000-0.3000 0.5000 (   327 PWs)   bands (ev):

   -67.1961 -33.5284 -33.2804 -33.1599  14.4348  16.8406  17.3660  19.3017
    20.4012  20.6395  28.7097  36.4460  37.1232  44.5127  45.9034  48.1335
    56.0259  61.0204  61.7146  67.2220

     occupation numbers 
     1.0000   1.0000   1.0000   1.0000   1.0000   1.0000   1.0000  -0.0000
    -0.0000  -0.0000  -0.0000  -0.0000  -0.0000  -0.0000  -0.0000  -0.0000
    -0.0000  -0.0000  -0.0000  -0.0000

          k = 0.0000 0.6000-0.4000 (   330 PWs)   bands (ev):

   -67.1881 -33.5693 -33.2949 -33.1592  14.7222  16.7338  17.6764  19.3437
    20.7679  21.2555  26.8127  36.0210  36.5278  44.2970  46.8354  47.8582
    55.4549  61.3494  66.7707  67.3385

     occupation numbers 
     1.0000   1.0000   1.0000   1.0000   1.0000   1.0000   1.0001  -0.0000
    -0.0000  -0.0000  -0.0000  -0.0000  -0.0000  -0.0000  -0.0000  -0.0000
    -0.0000  -0.0000  -0.0000  -0.0000

          k =-0.1000-0.1000 0.4000 (   327 PWs)   bands (ev):

   -67.2199 -33.3761 -33.2393 -33.1865  13.0157  17.2770  17.4633  18.6931
    19.2779  20.2807  34.7618  35.6442  40.3771  41.8694  46.1267  50.2974
    53.5415  58.4321  59.5155  61.5199

     occupation numbers 
     1.0000   1.0000   1.0000   1.0000   1.0000   1.0000   1.0000  -0.0000
    -0.0000  -0.0000  -0.0000  -0.0000  -0.0000  -0.0000  -0.0000  -0.0000
    -0.0000  -0.0000  -0.0000  -0.0000

          k =-0.1000-0.2000 0.5000 (   327 PWs)   bands (ev):

   -67.1974 -33.4745 -33.2927 -33.1902  14.4257  16.8115  17.2808  18.9611
    19.9894  20.9249  30.8819  33.7683  39.3074  42.4946  45.7731  51.0548
    55.4756  57.3590  62.5338  65.2321

     occupation numbers 
     1.0000   1.0000   1.0000   1.0000   1.0000   1.0000   1.0000  -0.0000
    -0.0000  -0.0000  -0.0000  -0.0000  -0.0000  -0.0000  -0.0000  -0.0000
    -0.0000  -0.0000  -0.0000  -0.0000

          k =-0.1000 0.7000-0.4000 (   327 PWs)   bands (ev):

   -67.1834 -33.5358 -33.3272 -33.1897  15.1187  16.8303  17.0856  19.1853
    20.3773  22.3364  27.5010  32.8688  38.3525  43.7887  45.5839  50.3666
    53.9706  62.2712  64.6458  68.0147

     occupation numbers 
     1.0000   1.0000   1.0000   1.0000   1.0000   1.0000   1.0000  -0.0000
    -0.0000  -0.0000  -0.0000  -0.0000  -0.0000  -0.0000  -0.0000  -0.0000
    -0.0000  -0.0000  -0.0000  -0.0000

          k =-0.2000 0.2000 0.2000 (   336 PWs)   bands (ev):

   -67.2386 -33.3536 -33.1610 -33.1610  12.0562  17.0972  17.0972  19.3665
    19.6739  19.6739  36.4472  36.4472  39.7102  44.4077  50.4152  50.4152
    51.6708  51.6708  56.2157  62.9768

     occupation numbers 
     1.0000   1.0000   1.0000   1.0000   1.0000   1.0000   1.0000  -0.0000
    -0.0000  -0.0000  -0.0000  -0.0000  -0.0000  -0.0000  -0.0000  -0.0000
    -0.0000  -0.0000  -0.0000  -0.0000

          k =-0.2000 0.8000-0.4000 (   323 PWs)   bands (ev):

   -67.1815 -33.4987 -33.3647 -33.2007  15.4908  16.3573  17.1390  19.2368
    20.0703  22.7537  29.3401  30.0390  41.0270  41.1719  44.9699  52.5231
    56.1270  57.2008  66.4141  68.1908

     occupation numbers 
     1.0000   1.0000   1.0000   1.0000   1.0000   1.0000   1.0000  -0.0000
    -0.0000  -0.0000  -0.0000  -0.0000  -0.0000  -0.0000  -0.0000  -0.0000
    -0.0000  -0.0000  -0.0000  -0.0000

          k =-0.2000 0.7000-0.3000 (   324 PWs)   bands (ev):

   -67.1755 -33.4961 -33.4062 -33.2025  15.8681  16.4892  16.7305  19.4834
    20.0618  24.6648  26.8857  29.3459  40.6036  42.8504  43.6571  51.4989
    56.5836  61.8194  62.8724  68.7707

     occupation numbers 
     1.0000   1.0000   1.0000   1.0000   1.0000   1.0000   1.0000  -0.0000
    -0.0000  -0.0000  -0.0000  -0.0000  -0.0000  -0.0000  -0.0000  -0.0000
    -0.0000  -0.0000  -0.0000  -0.0000

          k =-0.3000 0.3000 0.2000 (   335 PWs)   bands (ev):

   -67.2167 -33.4500 -33.2186 -33.1649  13.6002  16.6921  16.7949  19.6478
    19.8736  20.4832  32.6145  34.8807  36.8732  45.4113  50.4492  51.1067
    53.2842  55.5820  57.8823  66.2536

     occupation numbers 
     1.0000   1.0000   1.0000   1.0000   1.0000   1.0000   1.0000  -0.0000
    -0.0000  -0.0000  -0.0000  -0.0000  -0.0000  -0.0000  -0.0000  -0.0000
    -0.0000  -0.0000  -0.0000  -0.0000

          k = 0.6000-0.6000 0.2000 (   322 PWs)   bands (ev):

   -67.1989 -33.5146 -33.2778 -33.1680  14.7708  16.4185  17.0376  19.7277
    19.9999  21.7429  28.8068  33.8154  35.3244  45.5299  50.2985  52.9258
    53.7977  60.4103  61.9381  62.8822

     occupation numbers 
     1.0000   1.0000   1.0000   1.0000   1.0000   1.0000   1.0000  -0.0000
    -0.0000  -0.0000  -0.0000  -0.0000  -0.0000  -0.0000  -0.0000  -0.0000
    -0.0000  -0.0000  -0.0000  -0.0000

          k = 0.6000-0.7000 0.3000 (   328 PWs)   bands (ev):

   -67.2007 -33.4889 -33.2644 -33.1967  14.9811  16.3992  16.5166  19.7651
    19.9838  21.9286  30.9143  31.5729  34.5718  47.3339  51.1812  53.1280
    55.2632  57.7522  59.0005  64.4844

     occupation numbers 
     1.0000   1.0000   1.0000   1.0000   1.0000   1.0000   1.0000  -0.0000
    -0.0000  -0.0000  -0.0000  -0.0000  -0.0000  -0.0000  -0.0000  -0.0000
    -0.0000  -0.0000  -0.0000  -0.0000

          k = 0.5000-0.5000 0.2000 (   326 PWs)   bands (ev):

   -67.1921 -33.5366 -33.3029 -33.1692  15.0023  16.3229  17.5286  19.7733
    20.0442  22.6293  26.8262  33.4357  34.7819  45.4840  50.3731  52.5347
    56.4798  59.6944  64.0286  65.6471

     occupation numbers 
     1.0000   1.0000   1.0000   1.0000   1.0000   1.0000   1.0000  -0.0000
    -0.0000  -0.0000  -0.0000  -0.0000  -0.0000  -0.0000  -0.0000  -0.0000
    -0.0000  -0.0000  -0.0000  -0.0000

          k = 0.5000-0.6000 0.3000 (   332 PWs)   bands (ev):

   -67.1908 -33.4860 -33.3289 -33.2072  15.5733  16.2752  16.7814  19.8593
    20.0407  23.7100  27.7053  30.5066  33.7403  48.0163  51.6184  54.2060
    56.9380  60.3589  61.9662  63.1211

     occupation numbers 
     1.0000   1.0000   1.0000   1.0000   1.0000   1.0000   1.0000  -0.0000
    -0.0000  -0.0000  -0.0000  -0.0000  -0.0000  -0.0000  -0.0000  -0.0000
    -0.0000  -0.0000  -0.0000  -0.0000

          k = 0.4000-0.6000 0.4000 (   324 PWs)   bands (ev):

   -67.1878 -33.4122 -33.4122 -33.2215  15.8953  16.4500  16.4500  19.9788
    19.9788  26.2336  26.2336  28.3883  33.4237  50.0581  50.0581  56.9110
    59.3108  59.3108  62.1484  62.5351

     occupation numbers 
     1.0000   1.0000   1.0000   1.0000   1.0000   1.0000   1.0000  -0.0000
    -0.0000  -0.0000  -0.0000  -0.0000  -0.0000  -0.0000  -0.0000  -0.0000
    -0.0000  -0.0000  -0.0000  -0.0000

          k = 0.0000 0.0000 0.4000 (   329 PWs)   bands (ev):

   -67.2232 -33.3068 -33.2350 -33.2350  12.7244  17.8807  17.8807  18.0507
    18.6637  20.3279  36.8811  37.9261  37.9261  39.6292  49.7180  49.7180
    51.5597  56.8422  60.6512  61.2857

     occupation numbers 
     1.0000   1.0000   1.0000   1.0000   1.0000   1.0285   1.0285   0.6900
    -0.0000  -0.0000  -0.0000  -0.0000  -0.0000  -0.0000  -0.0000  -0.0000
    -0.0000  -0.0000  -0.0000  -0.0000

          k = 0.0000-0.1000 0.5000 (   328 PWs)   bands (ev):

   -67.1994 -33.4060 -33.2841 -33.2483  14.0686  17.1256  17.7975  18.4187
    19.4195  20.6864  33.3117  35.8483  36.7885  39.9704  49.1880  50.7399
    54.9319  54.9948  60.7839  64.6599

     occupation numbers 
     1.0000   1.0000   1.0000   1.0000   1.0000   1.0000   1.0059  -0.0013
    -0.0000  -0.0000  -0.0000  -0.0000  -0.0000  -0.0000  -0.0000  -0.0000
    -0.0000  -0.0000  -0.0000  -0.0000

          k = 0.0000-0.2000 0.6000 (   325 PWs)   bands (ev):

   -67.1800 -33.5005 -33.3235 -33.2435  15.0934  16.5994  17.6010  18.8003
    20.3014  21.7990  29.2443  34.2780  36.0967  41.7820  48.3195  49.4664
    52.8343  60.0020  65.3054  67.0612

     occupation numbers 
     1.0000   1.0000   1.0000   1.0000   1.0000   1.0000   1.0000  -0.0000
    -0.0000  -0.0000  -0.0000  -0.0000  -0.0000  -0.0000  -0.0000  -0.0000
    -0.0000  -0.0000  -0.0000  -0.0000

          k = 0.0000 0.7000-0.3000 (   328 PWs)   bands (ev):

   -67.1727 -33.5369 -33.3386 -33.2411  15.3551  16.5482  17.5207  18.8451
    20.6905  23.1749  26.8906  33.6645  35.8409  43.1114  47.8381  48.0215
    52.5274  64.6782  66.7078  68.3697

     occupation numbers 
     1.0000   1.0000   1.0000   1.0000   1.0000   1.0000   1.0000  -0.0000
    -0.0000  -0.0000  -0.0000  -0.0000  -0.0000  -0.0000  -0.0000  -0.0000
    -0.0000  -0.0000  -0.0000  -0.0000

          k =-0.1000-0.1000 0.6000 (   327 PWs)   bands (ev):

   -67.1788 -33.4611 -33.3434 -33.2688  15.0871  16.4855  17.8991  18.7614
    19.9391  21.7316  31.6085  31.9505  37.7239  39.2235  48.4433  51.0788
    54.8409  56.0757  63.7740  68.6277

     occupation numbers 
     1.0000   1.0000   1.0000   1.0000   1.0000   1.0000   1.0336  -0.0000
    -0.0000  -0.0000  -0.0000  -0.0000  -0.0000  -0.0000  -0.0000  -0.0000
    -0.0000  -0.0000  -0.0000  -0.0000

          k =-0.1000 0.8000-0.3000 (   327 PWs)   bands (ev):

   -67.1660 -33.5013 -33.3867 -33.2682  15.6446  16.1269  17.6770  19.1537
    20.3482  23.8510  27.9929  30.8074  37.6203  40.6920  46.1706  49.6705
    55.4315  60.7127  66.8529  69.0498

     occupation numbers 
     1.0000   1.0000   1.0000   1.0000   1.0000   1.0000   1.0001  -0.0000
    -0.0000  -0.0000  -0.0000  -0.0000  -0.0000  -0.0000  -0.0000  -0.0000
    -0.0000  -0.0000  -0.0000  -0.0000

          k =-0.2000 0.8000-0.2000 (   324 PWs)   bands (ev):

   -67.1607 -33.4598 -33.4598 -33.2703  15.9203  15.9203  17.4717  19.9155
    19.9155  26.6019  26.6019  28.3663  39.5967  39.5967  44.4196  49.5315
    59.6461  61.5385  61.5385  72.8303

     occupation numbers 
     1.0000   1.0000   1.0000   1.0000   1.0000   1.0000   1.0000  -0.0000
    -0.0000  -0.0000  -0.0000  -0.0000  -0.0000  -0.0000  -0.0000  -0.0000
    -0.0000  -0.0000  -0.0000  -0.0000

          k = 0.6000-0.6000 0.4000 (   333 PWs)   bands (ev):

   -67.1921 -33.4660 -33.2756 -33.2756  16.0173  16.2311  16.2311  20.0018
    20.0018  23.8003  29.8549  29.8549  31.0123  51.0822  53.7489  53.7489
    56.2202  59.7536  59.7536  64.2764

     occupation numbers 
     1.0000   1.0000   1.0000   1.0000   1.0000   1.0000   1.0000  -0.0000
    -0.0000  -0.0000  -0.0000  -0.0000  -0.0000  -0.0000  -0.0000  -0.0000
    -0.0000  -0.0000  -0.0000  -0.0000

          k = 0.5000-0.5000 0.4000 (   328 PWs)   bands (ev):

   -67.1889 -33.4203 -33.3428 -33.2799  16.0637  16.1847  16.5099  20.0253
    20.0711  25.7920  27.2709  29.4928  30.3795  52.1986  54.9727  56.0164
    56.1347  58.5923  60.7584  63.8006

     occupation numbers 
     1.0000   1.0000   1.0000   1.0000   1.0000   1.0000   1.0000  -0.0000
    -0.0000  -0.0000  -0.0000  -0.0000  -0.0000  -0.0000  -0.0000  -0.0000
    -0.0000  -0.0000  -0.0000  -0.0000

          k = 0.0000 0.0000 0.6000 (   321 PWs)   bands (ev):

   -67.1777 -33.4065 -33.3353 -33.3353  14.9110  16.5817  18.5357  18.5357
    19.5077  21.4282  33.4946  33.4946  35.4756  37.2627  50.2331  52.7768
    54.3737  54.3737  60.6383  71.3477

     occupation numbers 
     1.0000   1.0000   1.0000   1.0000   1.0000   1.0000  -0.0000  -0.0000
    -0.0000  -0.0000  -0.0000  -0.0000  -0.0000  -0.0000  -0.0000  -0.0000
    -0.0000  -0.0000  -0.0000  -0.0000

          k = 0.0000-0.1000 0.7000 (   328 PWs)   bands (ev):

   -67.1602 -33.4663 -33.3765 -33.3453  15.3929  15.9698  18.6979  18.9753
    20.1906  23.1064  30.0213  31.7410  35.6108  37.9325  46.3235  52.2382
    55.7832  58.9012  63.9358  70.9501

     occupation numbers 
     1.0000   1.0000   1.0000   1.0000   1.0000   1.0000  -0.0000  -0.0000
    -0.0000  -0.0000  -0.0000  -0.0000  -0.0000  -0.0000  -0.0000  -0.0000
    -0.0000  -0.0000  -0.0000  -0.0000

          k = 0.0000 0.8000-0.2000 (   328 PWs)   bands (ev):

   -67.1535 -33.4968 -33.3922 -33.3412  15.5537  15.7148  18.6813  19.1014
    20.5956  25.2340  27.1579  31.0505  35.5800  39.0987  44.3190  51.9227
    55.9088  62.9341  66.6858  68.3901

     occupation numbers 
     1.0000   1.0000   1.0000   1.0000   1.0000   1.0000  -0.0000  -0.0000
    -0.0000  -0.0000  -0.0000  -0.0000  -0.0000  -0.0000  -0.0000  -0.0000
    -0.0000  -0.0000  -0.0000  -0.0000

          k =-0.1000 0.9000-0.2000 (   334 PWs)   bands (ev):

   -67.1487 -33.4721 -33.4304 -33.3560  15.4702  15.5733  18.7776  19.7681
    20.3499  25.4868  28.6304  29.0714  36.4095  37.5426  43.2896  52.5881
    59.3330  60.5162  65.6684  68.4778

     occupation numbers 
     1.0000   1.0000   1.0000   1.0000   1.0000   1.0000  -0.0000  -0.0000
    -0.0000  -0.0000  -0.0000  -0.0000  -0.0000  -0.0000  -0.0000  -0.0000
    -0.0000  -0.0000  -0.0000  -0.0000

          k = 0.0000 0.0000 0.8000 (   338 PWs)   bands (ev):

   -67.1441 -33.4462 -33.4192 -33.4192  15.2681  15.4593  19.7075  19.7075
    20.2149  24.9025  29.7939  29.7939  34.8812  36.3181  42.6702  54.7183
    60.1385  60.1385  63.8488  69.9080

     occupation numbers 
     1.0000   1.0000   1.0000   1.0000   1.0000   1.0000  -0.0000  -0.0000
    -0.0000  -0.0000  -0.0000  -0.0000  -0.0000  -0.0000  -0.0000  -0.0000
    -0.0000  -0.0000  -0.0000  -0.0000

          k = 0.0000 0.9000-0.1000 (   334 PWs)   bands (ev):

   -67.1379 -33.4643 -33.4354 -33.4214  15.2135  15.2279  19.8978  20.0289
    20.5196  27.1602  27.7155  28.9981  35.1233  36.0582  40.9863  55.0647
    61.1835  63.1386  66.7023  66.8081

     occupation numbers 
     1.0000   1.0000   1.0000   1.0000   1.0000   1.0000  -0.0000  -0.0000
    -0.0000  -0.0000  -0.0000  -0.0000  -0.0000  -0.0000  -0.0000  -0.0000
    -0.0000  -0.0000  -0.0000  -0.0000

          k = 0.0000 0.0000-1.0000 (   370 PWs)   bands (ev):

   -67.1320 -33.4519 -33.4519 -33.4519  15.0469  15.0469  20.4906  20.4906
    20.4906  28.1340  28.1340  28.1340  34.7255  34.7255  39.7522  56.0950
    66.2428  66.2428  66.2428  66.7143

     occupation numbers 
     1.0000   1.0000   1.0000   1.0000   1.0000   1.0000  -0.0000  -0.0000
    -0.0000  -0.0000  -0.0000  -0.0000  -0.0000  -0.0000  -0.0000  -0.0000
    -0.0000  -0.0000  -0.0000  -0.0000

     the Fermi energy is    18.0822 ev

!    total energy              =    -250.34694210 Ry
     estimated scf accuracy    <          3.5E-12 Ry
     smearing contrib. (-TS)   =      -0.00013514 Ry
     internal energy E=F+TS    =    -250.34680696 Ry

     The total energy is F=E-TS. E is the sum of the following terms:
     one-electron contribution =    -113.76757246 Ry
     hartree contribution      =      66.43705111 Ry
     xc contribution           =     -29.21321375 Ry
     ewald contribution        =    -173.80307186 Ry

     total magnetization       =     2.13 Bohr mag/cell
     absolute magnetization    =     2.28 Bohr mag/cell

     convergence has been achieved in  15 iterations

     Forces acting on atoms (cartesian axes, Ry/au):

     atom    1 type  1   force =     0.00000000    0.00000000    0.00000000
     The non-local contrib.  to forces
     atom    1 type  1   force =    -0.00000000   -0.00000000    0.00000000
     The ionic contribution  to forces
     atom    1 type  1   force =    -0.00000000   -0.00000000   -0.00000000
     The local contribution  to forces
     atom    1 type  1   force =    -0.00000000    0.00000000    0.00000000
     The core correction contribution to forces
     atom    1 type  1   force =    -0.00000000    0.00000000    0.00000000
     The Hubbard contrib.    to forces
     atom    1 type  1   force =     0.00000000    0.00000000    0.00000000
     The SCF correction term to forces
     atom    1 type  1   force =    -0.00000000   -0.00000000   -0.00000000

     Total force =     0.000000     Total SCF correction =     0.000000


     Computing stress (Cartesian axis) and pressure

          total   stress  (Ry/bohr**3)                   (kbar)     P=      -21.88
  -0.00014873   0.00000000  -0.00000000          -21.88        0.00       -0.00
   0.00000000  -0.00014873   0.00000000            0.00      -21.88        0.00
  -0.00000000   0.00000000  -0.00014873           -0.00        0.00      -21.88

     kinetic stress (kbar)  50283.02      0.00      0.00
                                0.00  50283.02     -0.00
                                0.00     -0.00  50283.02

     local   stress (kbar)  10568.78     -0.00      0.00
                               -0.00  10568.78      0.00
                                0.00      0.00  10568.78

     nonloc. stress (kbar)  24973.78      0.00     -0.00
                                0.00  24973.78      0.00
                               -0.00      0.00  24973.78

     hartree stress (kbar)  42302.83      0.00     -0.00
                                0.00  42302.83      0.00
                               -0.00      0.00  42302.83

     exc-cor stress (kbar) -12056.61      0.00      0.00
                                0.00 -12056.61     -0.00
                                0.00     -0.00 -12056.61

     corecor stress (kbar)  -5427.09     -0.00     -0.00
                               -0.00  -5427.09     -0.00
                               -0.00     -0.00  -5427.09

     ewald   stress (kbar)-110666.60     -0.00     -0.00
                               -0.00-110666.60     -0.00
                               -0.00     -0.00-110666.60

     hubbard stress (kbar)      0.00      0.00      0.00
                                0.00      0.00      0.00
                                0.00      0.00      0.00

     DFT-D   stress (kbar)      0.00      0.00      0.00
                                0.00      0.00      0.00
                                0.00      0.00      0.00

     XDM     stress (kbar)      0.00      0.00      0.00
                                0.00      0.00      0.00
                                0.00      0.00      0.00

     dft-nl  stress (kbar)      0.00      0.00      0.00
                                0.00      0.00      0.00
                                0.00      0.00      0.00

     TS-vdW  stress (kbar)      0.00      0.00      0.00
                                0.00      0.00      0.00
                                0.00      0.00      0.00


                                0.00      0.00      0.00
                                0.00      0.00      0.00


                                0.00      0.00      0.00


     Writing all to output data dir ./fe.save/

     init_run     :      1.39s CPU      1.49s WALL (       1 calls)
     electrons    :     33.46s CPU     34.15s WALL (       1 calls)
     forces       :      0.23s CPU      0.24s WALL (       1 calls)
     stress       :      0.67s CPU      0.67s WALL (       1 calls)

     Called by init_run:
     wfcinit      :      0.78s CPU      0.81s WALL (       1 calls)
     wfcinit:atom :      0.01s CPU      0.01s WALL (      94 calls)
     wfcinit:wfcr :      0.73s CPU      0.76s WALL (      94 calls)
     potinit      :      0.09s CPU      0.10s WALL (       1 calls)
     hinit0       :      0.47s CPU      0.48s WALL (       1 calls)

     Called by electrons:
     c_bands      :     26.25s CPU     26.79s WALL (      15 calls)
     sum_band     :      5.77s CPU      5.89s WALL (      15 calls)
     v_of_rho     :      0.90s CPU      0.90s WALL (      16 calls)
     v_h          :      0.01s CPU      0.01s WALL (      16 calls)
     v_xc         :      0.99s CPU      1.00s WALL (      18 calls)
     newd         :      0.56s CPU      0.58s WALL (      16 calls)
     mix_rho      :      0.06s CPU      0.06s WALL (      15 calls)

     Called by c_bands:
     init_us_2    :      0.43s CPU      0.44s WALL (    3102 calls)
     init_us_2:cp :      0.42s CPU      0.43s WALL (    3102 calls)
     cegterg      :     25.63s CPU     26.14s WALL (    1410 calls)

     Called by sum_band:
     sum_band:wei :      0.06s CPU      0.06s WALL (      15 calls)
     sum_band:loo :      4.91s CPU      5.01s WALL (      15 calls)
     sum_band:buf :      0.03s CPU      0.03s WALL (    1410 calls)
     sum_band:ini :      0.20s CPU      0.20s WALL (    1410 calls)
     sum_band:cal :      0.34s CPU      0.34s WALL (    1410 calls)
     sum_band:bec :      0.03s CPU      0.03s WALL (    1410 calls)
     addusdens    :      0.75s CPU      0.76s WALL (      15 calls)
     addusd:skk   :      0.00s CPU      0.00s WALL (      15 calls)
     addusd:dgemm :      0.23s CPU      0.25s WALL (      30 calls)
     addusd:qvan2 :      0.42s CPU      0.42s WALL (      30 calls)

     Called by *egterg:
     cdiaghg      :      2.10s CPU      2.14s WALL (    3562 calls)
     cegterg:over :      1.54s CPU      1.57s WALL (    2152 calls)
     cegterg:upda :      0.69s CPU      0.70s WALL (    2152 calls)
     cegterg:last :      1.08s CPU      1.09s WALL (    1853 calls)
     h_psi        :     19.27s CPU     19.71s WALL (    3656 calls)
     s_psi        :      0.61s CPU      0.63s WALL (    3656 calls)
     g_psi        :      0.06s CPU      0.06s WALL (    2152 calls)

     Called by h_psi:
     h_psi:calbec :      0.71s CPU      0.72s WALL (    3656 calls)
     vloc_psi     :     17.84s CPU     18.25s WALL (    3656 calls)
     add_vuspsi   :      0.62s CPU      0.63s WALL (    3656 calls)

     General routines
     calbec       :      1.13s CPU      1.16s WALL (    5536 calls)
     fft          :      0.30s CPU      0.30s WALL (     438 calls)
     ffts         :      0.01s CPU      0.01s WALL (      62 calls)
     fftw         :     20.35s CPU     20.85s WALL (  151968 calls)
     interpolate  :      0.03s CPU      0.03s WALL (      32 calls)

     Parallel routines

     PWSCF        :     36.06s CPU     36.91s WALL


   This run was terminated on:  14:46: 4   4Feb2022            

=------------------------------------------------------------------------------=
   JOB DONE.
=------------------------------------------------------------------------------=
