
     Program PWSCF v.7.0 starts on  4Feb2022 at 14:54:47 

     This program is part of the open-source Quantum ESPRESSO suite
     for quantum simulation of materials; please cite
         "P. Giannozzi et al., J. Phys.:Condens. Matter 21 395502 (2009);
         "P. Giannozzi et al., J. Phys.:Condens. Matter 29 465901 (2017);
         "P. Giannozzi et al., J. Chem. Phys. 152 154105 (2020);
          URL http://www.quantum-espresso.org", 
     in publications or presentations arising from this work. More details at
     http://www.quantum-espresso.org/quote

     Parallel version (MPI), running on     1 processors

     MPI processes distributed on     1 nodes
     325 MiB available memory on the printing compute node when the environment starts

     Reading input from 02-fe-nfm-nscf.in

     Current dimensions of program PWSCF are:
     Max number of different atomic species (ntypx) = 10
     Max number of k-points (npk) =  40000
     Max angular momentum in pseudopotentials (lmaxx) =  4

     Atomic positions and unit cell read from directory:
     ./fe_nfm.save/


     Subspace diagonalization in iterative solution of the eigenvalue problem:
     a serial algorithm will be used


     G-vector sticks info
     --------------------
     sticks:   dense  smooth     PW     G-vecs:    dense   smooth      PW
     Sum         645     261     91                10425     2659     555

     Using Slab Decomposition



     bravais-lattice index     =            3
     lattice parameter (alat)  =       5.3603  a.u.
     unit-cell volume          =      77.0100 (a.u.)^3
     number of atoms/cell      =            1
     number of atomic types    =            1
     number of electrons       =        16.00
     number of Kohn-Sham states=           20
     kinetic-energy cutoff     =      40.0000  Ry
     charge density cutoff     =     400.0000  Ry
     Exchange-correlation=  SLA  PW   PBX  PBC
                           (   1   4   3   4   0   0   0)

     celldm(1)=   5.360341  celldm(2)=   0.000000  celldm(3)=   0.000000
     celldm(4)=   0.000000  celldm(5)=   0.000000  celldm(6)=   0.000000

     crystal axes: (cart. coord. in units of alat)
               a(1) = (   0.500000   0.500000   0.500000 )  
               a(2) = (  -0.500000   0.500000   0.500000 )  
               a(3) = (  -0.500000  -0.500000   0.500000 )  

     reciprocal axes: (cart. coord. in units 2 pi/alat)
               b(1) = (  1.000000  0.000000  1.000000 )  
               b(2) = ( -1.000000  1.000000  0.000000 )  
               b(3) = (  0.000000 -1.000000  1.000000 )  


     PseudoPot. # 1 for Fe read from file:
     /home/user/pseudo_dir/fe_pbe_v1.5.uspp.F.UPF
     MD5 check sum: a130daea23fe5165f5d574ae7f82ed95
     Pseudo is Ultrasoft + core correction, Zval = 16.0
     Generated by new atomic code, or converted to UPF format
     Using radial grid of  861 points,  6 beta functions with: 
                l(1) =   0
                l(2) =   0
                l(3) =   1
                l(4) =   1
                l(5) =   2
                l(6) =   2
     Q(r) pseudized with  8 coefficients,  rinner =    1.000   1.000   1.000
                                                       1.000   1.000

     atomic species   valence    mass     pseudopotential
        Fe            16.00    55.84700     Fe( 1.00)

     Starting magnetic structure 
     atomic species   magnetization
        Fe           0.500

     48 Sym. Ops., with inversion, found


                                    s                        frac. trans.

      isym =  1     identity                                     

 cryst.   s( 1) = (     1          0          0      )
                  (     0          1          0      )
                  (     0          0          1      )

 cart.    s( 1) = (  1.0000000  0.0000000  0.0000000 )
                  (  0.0000000  1.0000000  0.0000000 )
                  (  0.0000000  0.0000000  1.0000000 )


      isym =  2     180 deg rotation - cart. axis [0,0,1]        

 cryst.   s( 2) = (     0          0          1      )
                  (     1         -1          1      )
                  (     1          0          0      )

 cart.    s( 2) = ( -1.0000000  0.0000000  0.0000000 )
                  (  0.0000000 -1.0000000  0.0000000 )
                  (  0.0000000  0.0000000  1.0000000 )


      isym =  3     180 deg rotation - cart. axis [0,1,0]        

 cryst.   s( 3) = (    -1          1         -1      )
                  (     0          0         -1      )
                  (     0         -1          0      )

 cart.    s( 3) = ( -1.0000000  0.0000000  0.0000000 )
                  (  0.0000000  1.0000000  0.0000000 )
                  (  0.0000000  0.0000000 -1.0000000 )


      isym =  4     180 deg rotation - cart. axis [1,0,0]        

 cryst.   s( 4) = (     0         -1          0      )
                  (    -1          0          0      )
                  (    -1          1         -1      )

 cart.    s( 4) = (  1.0000000  0.0000000  0.0000000 )
                  (  0.0000000 -1.0000000  0.0000000 )
                  (  0.0000000  0.0000000 -1.0000000 )


      isym =  5     180 deg rotation - cart. axis [1,1,0]        

 cryst.   s( 5) = (     0          0         -1      )
                  (     0         -1          0      )
                  (    -1          0          0      )

 cart.    s( 5) = (  0.0000000  1.0000000  0.0000000 )
                  (  1.0000000  0.0000000  0.0000000 )
                  (  0.0000000  0.0000000 -1.0000000 )


      isym =  6     180 deg rotation - cart. axis [1,-1,0]       

 cryst.   s( 6) = (    -1          0          0      )
                  (    -1          1         -1      )
                  (     0          0         -1      )

 cart.    s( 6) = (  0.0000000 -1.0000000  0.0000000 )
                  ( -1.0000000  0.0000000  0.0000000 )
                  (  0.0000000  0.0000000 -1.0000000 )


      isym =  7      90 deg rotation - cart. axis [0,0,-1]       

 cryst.   s( 7) = (     1         -1          1      )
                  (     1          0          0      )
                  (     0          1          0      )

 cart.    s( 7) = (  0.0000000  1.0000000  0.0000000 )
                  ( -1.0000000  0.0000000  0.0000000 )
                  (  0.0000000  0.0000000  1.0000000 )


      isym =  8      90 deg rotation - cart. axis [0,0,1]        

 cryst.   s( 8) = (     0          1          0      )
                  (     0          0          1      )
                  (     1         -1          1      )

 cart.    s( 8) = (  0.0000000 -1.0000000  0.0000000 )
                  (  1.0000000  0.0000000  0.0000000 )
                  (  0.0000000  0.0000000  1.0000000 )


      isym =  9     180 deg rotation - cart. axis [1,0,1]        

 cryst.   s( 9) = (     1         -1          1      )
                  (     0         -1          0      )
                  (     0          0         -1      )

 cart.    s( 9) = (  0.0000000  0.0000000  1.0000000 )
                  (  0.0000000 -1.0000000  0.0000000 )
                  (  1.0000000  0.0000000  0.0000000 )


      isym = 10     180 deg rotation - cart. axis [-1,0,1]       

 cryst.   s(10) = (    -1          0          0      )
                  (     0          0          1      )
                  (     0          1          0      )

 cart.    s(10) = (  0.0000000  0.0000000 -1.0000000 )
                  (  0.0000000 -1.0000000  0.0000000 )
                  ( -1.0000000  0.0000000  0.0000000 )


      isym = 11      90 deg rotation - cart. axis [0,1,0]        

 cryst.   s(11) = (     0          0         -1      )
                  (     1          0          0      )
                  (     1         -1          1      )

 cart.    s(11) = (  0.0000000  0.0000000  1.0000000 )
                  (  0.0000000  1.0000000  0.0000000 )
                  ( -1.0000000  0.0000000  0.0000000 )


      isym = 12      90 deg rotation - cart. axis [0,-1,0]       

 cryst.   s(12) = (     0          1          0      )
                  (    -1          1         -1      )
                  (    -1          0          0      )

 cart.    s(12) = (  0.0000000  0.0000000 -1.0000000 )
                  (  0.0000000  1.0000000  0.0000000 )
                  (  1.0000000  0.0000000  0.0000000 )


      isym = 13     180 deg rotation - cart. axis [0,1,1]        

 cryst.   s(13) = (     0          1          0      )
                  (     1          0          0      )
                  (     0          0         -1      )

 cart.    s(13) = ( -1.0000000  0.0000000  0.0000000 )
                  (  0.0000000  0.0000000  1.0000000 )
                  (  0.0000000  1.0000000  0.0000000 )


      isym = 14     180 deg rotation - cart. axis [0,1,-1]       

 cryst.   s(14) = (    -1          0          0      )
                  (     0         -1          0      )
                  (     1         -1          1      )

 cart.    s(14) = ( -1.0000000  0.0000000  0.0000000 )
                  (  0.0000000  0.0000000 -1.0000000 )
                  (  0.0000000 -1.0000000  0.0000000 )


      isym = 15      90 deg rotation - cart. axis [-1,0,0]       

 cryst.   s(15) = (     0          0         -1      )
                  (    -1          1         -1      )
                  (     0          1          0      )

 cart.    s(15) = (  1.0000000  0.0000000  0.0000000 )
                  (  0.0000000  0.0000000  1.0000000 )
                  (  0.0000000 -1.0000000  0.0000000 )


      isym = 16      90 deg rotation - cart. axis [1,0,0]        

 cryst.   s(16) = (     1         -1          1      )
                  (     0          0          1      )
                  (    -1          0          0      )

 cart.    s(16) = (  1.0000000  0.0000000  0.0000000 )
                  (  0.0000000  0.0000000 -1.0000000 )
                  (  0.0000000  1.0000000  0.0000000 )


      isym = 17     120 deg rotation - cart. axis [-1,-1,-1]     

 cryst.   s(17) = (     1          0          0      )
                  (     0          0         -1      )
                  (    -1          1         -1      )

 cart.    s(17) = (  0.0000000  1.0000000  0.0000000 )
                  (  0.0000000  0.0000000  1.0000000 )
                  (  1.0000000  0.0000000  0.0000000 )


      isym = 18     120 deg rotation - cart. axis [-1,1,1]       

 cryst.   s(18) = (    -1          1         -1      )
                  (     0          1          0      )
                  (     1          0          0      )

 cart.    s(18) = (  0.0000000 -1.0000000  0.0000000 )
                  (  0.0000000  0.0000000  1.0000000 )
                  ( -1.0000000  0.0000000  0.0000000 )


      isym = 19     120 deg rotation - cart. axis [1,1,-1]       

 cryst.   s(19) = (     0         -1          0      )
                  (     1         -1          1      )
                  (     0          0          1      )

 cart.    s(19) = (  0.0000000  1.0000000  0.0000000 )
                  (  0.0000000  0.0000000 -1.0000000 )
                  ( -1.0000000  0.0000000  0.0000000 )


      isym = 20     120 deg rotation - cart. axis [1,-1,1]       

 cryst.   s(20) = (     0          0          1      )
                  (    -1          0          0      )
                  (     0         -1          0      )

 cart.    s(20) = (  0.0000000 -1.0000000  0.0000000 )
                  (  0.0000000  0.0000000 -1.0000000 )
                  (  1.0000000  0.0000000  0.0000000 )


      isym = 21     120 deg rotation - cart. axis [1,1,1]        

 cryst.   s(21) = (     1          0          0      )
                  (     1         -1          1      )
                  (     0         -1          0      )

 cart.    s(21) = (  0.0000000  0.0000000  1.0000000 )
                  (  1.0000000  0.0000000  0.0000000 )
                  (  0.0000000  1.0000000  0.0000000 )


      isym = 22     120 deg rotation - cart. axis [-1,1,-1]      

 cryst.   s(22) = (     0         -1          0      )
                  (     0          0         -1      )
                  (     1          0          0      )

 cart.    s(22) = (  0.0000000  0.0000000  1.0000000 )
                  ( -1.0000000  0.0000000  0.0000000 )
                  (  0.0000000 -1.0000000  0.0000000 )


      isym = 23     120 deg rotation - cart. axis [1,-1,-1]      

 cryst.   s(23) = (     0          0          1      )
                  (     0          1          0      )
                  (    -1          1         -1      )

 cart.    s(23) = (  0.0000000  0.0000000 -1.0000000 )
                  ( -1.0000000  0.0000000  0.0000000 )
                  (  0.0000000  1.0000000  0.0000000 )


      isym = 24     120 deg rotation - cart. axis [-1,-1,1]      

 cryst.   s(24) = (    -1          1         -1      )
                  (    -1          0          0      )
                  (     0          0          1      )

 cart.    s(24) = (  0.0000000  0.0000000 -1.0000000 )
                  (  1.0000000  0.0000000  0.0000000 )
                  (  0.0000000 -1.0000000  0.0000000 )


      isym = 25     inversion                                    

 cryst.   s(25) = (    -1          0          0      )
                  (     0         -1          0      )
                  (     0          0         -1      )

 cart.    s(25) = ( -1.0000000  0.0000000  0.0000000 )
                  (  0.0000000 -1.0000000  0.0000000 )
                  (  0.0000000  0.0000000 -1.0000000 )


      isym = 26     inv. 180 deg rotation - cart. axis [0,0,1]   

 cryst.   s(26) = (     0          0         -1      )
                  (    -1          1         -1      )
                  (    -1          0          0      )

 cart.    s(26) = (  1.0000000  0.0000000  0.0000000 )
                  (  0.0000000  1.0000000  0.0000000 )
                  (  0.0000000  0.0000000 -1.0000000 )


      isym = 27     inv. 180 deg rotation - cart. axis [0,1,0]   

 cryst.   s(27) = (     1         -1          1      )
                  (     0          0          1      )
                  (     0          1          0      )

 cart.    s(27) = (  1.0000000  0.0000000  0.0000000 )
                  (  0.0000000 -1.0000000  0.0000000 )
                  (  0.0000000  0.0000000  1.0000000 )


      isym = 28     inv. 180 deg rotation - cart. axis [1,0,0]   

 cryst.   s(28) = (     0          1          0      )
                  (     1          0          0      )
                  (     1         -1          1      )

 cart.    s(28) = ( -1.0000000  0.0000000  0.0000000 )
                  (  0.0000000  1.0000000  0.0000000 )
                  (  0.0000000  0.0000000  1.0000000 )


      isym = 29     inv. 180 deg rotation - cart. axis [1,1,0]   

 cryst.   s(29) = (     0          0          1      )
                  (     0          1          0      )
                  (     1          0          0      )

 cart.    s(29) = (  0.0000000 -1.0000000  0.0000000 )
                  ( -1.0000000  0.0000000  0.0000000 )
                  (  0.0000000  0.0000000  1.0000000 )


      isym = 30     inv. 180 deg rotation - cart. axis [1,-1,0]  

 cryst.   s(30) = (     1          0          0      )
                  (     1         -1          1      )
                  (     0          0          1      )

 cart.    s(30) = (  0.0000000  1.0000000  0.0000000 )
                  (  1.0000000  0.0000000  0.0000000 )
                  (  0.0000000  0.0000000  1.0000000 )


      isym = 31     inv.  90 deg rotation - cart. axis [0,0,-1]  

 cryst.   s(31) = (    -1          1         -1      )
                  (    -1          0          0      )
                  (     0         -1          0      )

 cart.    s(31) = (  0.0000000 -1.0000000  0.0000000 )
                  (  1.0000000  0.0000000  0.0000000 )
                  (  0.0000000  0.0000000 -1.0000000 )


      isym = 32     inv.  90 deg rotation - cart. axis [0,0,1]   

 cryst.   s(32) = (     0         -1          0      )
                  (     0          0         -1      )
                  (    -1          1         -1      )

 cart.    s(32) = (  0.0000000  1.0000000  0.0000000 )
                  ( -1.0000000  0.0000000  0.0000000 )
                  (  0.0000000  0.0000000 -1.0000000 )


      isym = 33     inv. 180 deg rotation - cart. axis [1,0,1]   

 cryst.   s(33) = (    -1          1         -1      )
                  (     0          1          0      )
                  (     0          0          1      )

 cart.    s(33) = (  0.0000000  0.0000000 -1.0000000 )
                  (  0.0000000  1.0000000  0.0000000 )
                  ( -1.0000000  0.0000000  0.0000000 )


      isym = 34     inv. 180 deg rotation - cart. axis [-1,0,1]  

 cryst.   s(34) = (     1          0          0      )
                  (     0          0         -1      )
                  (     0         -1          0      )

 cart.    s(34) = (  0.0000000  0.0000000  1.0000000 )
                  (  0.0000000  1.0000000  0.0000000 )
                  (  1.0000000  0.0000000  0.0000000 )


      isym = 35     inv.  90 deg rotation - cart. axis [0,1,0]   

 cryst.   s(35) = (     0          0          1      )
                  (    -1          0          0      )
                  (    -1          1         -1      )

 cart.    s(35) = (  0.0000000  0.0000000 -1.0000000 )
                  (  0.0000000 -1.0000000  0.0000000 )
                  (  1.0000000  0.0000000  0.0000000 )


      isym = 36     inv.  90 deg rotation - cart. axis [0,-1,0]  

 cryst.   s(36) = (     0         -1          0      )
                  (     1         -1          1      )
                  (     1          0          0      )

 cart.    s(36) = (  0.0000000  0.0000000  1.0000000 )
                  (  0.0000000 -1.0000000  0.0000000 )
                  ( -1.0000000  0.0000000  0.0000000 )


      isym = 37     inv. 180 deg rotation - cart. axis [0,1,1]   

 cryst.   s(37) = (     0         -1          0      )
                  (    -1          0          0      )
                  (     0          0          1      )

 cart.    s(37) = (  1.0000000  0.0000000  0.0000000 )
                  (  0.0000000  0.0000000 -1.0000000 )
                  (  0.0000000 -1.0000000  0.0000000 )


      isym = 38     inv. 180 deg rotation - cart. axis [0,1,-1]  

 cryst.   s(38) = (     1          0          0      )
                  (     0          1          0      )
                  (    -1          1         -1      )

 cart.    s(38) = (  1.0000000  0.0000000  0.0000000 )
                  (  0.0000000  0.0000000  1.0000000 )
                  (  0.0000000  1.0000000  0.0000000 )


      isym = 39     inv.  90 deg rotation - cart. axis [-1,0,0]  

 cryst.   s(39) = (     0          0          1      )
                  (     1         -1          1      )
                  (     0         -1          0      )

 cart.    s(39) = ( -1.0000000  0.0000000  0.0000000 )
                  (  0.0000000  0.0000000 -1.0000000 )
                  (  0.0000000  1.0000000  0.0000000 )


      isym = 40     inv.  90 deg rotation - cart. axis [1,0,0]   

 cryst.   s(40) = (    -1          1         -1      )
                  (     0          0         -1      )
                  (     1          0          0      )

 cart.    s(40) = ( -1.0000000  0.0000000  0.0000000 )
                  (  0.0000000  0.0000000  1.0000000 )
                  (  0.0000000 -1.0000000  0.0000000 )


      isym = 41     inv. 120 deg rotation - cart. axis [-1,-1,-1]

 cryst.   s(41) = (    -1          0          0      )
                  (     0          0          1      )
                  (     1         -1          1      )

 cart.    s(41) = (  0.0000000 -1.0000000  0.0000000 )
                  (  0.0000000  0.0000000 -1.0000000 )
                  ( -1.0000000  0.0000000  0.0000000 )


      isym = 42     inv. 120 deg rotation - cart. axis [-1,1,1]  

 cryst.   s(42) = (     1         -1          1      )
                  (     0         -1          0      )
                  (    -1          0          0      )

 cart.    s(42) = (  0.0000000  1.0000000  0.0000000 )
                  (  0.0000000  0.0000000 -1.0000000 )
                  (  1.0000000  0.0000000  0.0000000 )


      isym = 43     inv. 120 deg rotation - cart. axis [1,1,-1]  

 cryst.   s(43) = (     0          1          0      )
                  (    -1          1         -1      )
                  (     0          0         -1      )

 cart.    s(43) = (  0.0000000 -1.0000000  0.0000000 )
                  (  0.0000000  0.0000000  1.0000000 )
                  (  1.0000000  0.0000000  0.0000000 )


      isym = 44     inv. 120 deg rotation - cart. axis [1,-1,1]  

 cryst.   s(44) = (     0          0         -1      )
                  (     1          0          0      )
                  (     0          1          0      )

 cart.    s(44) = (  0.0000000  1.0000000  0.0000000 )
                  (  0.0000000  0.0000000  1.0000000 )
                  ( -1.0000000  0.0000000  0.0000000 )


      isym = 45     inv. 120 deg rotation - cart. axis [1,1,1]   

 cryst.   s(45) = (    -1          0          0      )
                  (    -1          1         -1      )
                  (     0          1          0      )

 cart.    s(45) = (  0.0000000  0.0000000 -1.0000000 )
                  ( -1.0000000  0.0000000  0.0000000 )
                  (  0.0000000 -1.0000000  0.0000000 )


      isym = 46     inv. 120 deg rotation - cart. axis [-1,1,-1] 

 cryst.   s(46) = (     0          1          0      )
                  (     0          0          1      )
                  (    -1          0          0      )

 cart.    s(46) = (  0.0000000  0.0000000 -1.0000000 )
                  (  1.0000000  0.0000000  0.0000000 )
                  (  0.0000000  1.0000000  0.0000000 )


      isym = 47     inv. 120 deg rotation - cart. axis [1,-1,-1] 

 cryst.   s(47) = (     0          0         -1      )
                  (     0         -1          0      )
                  (     1         -1          1      )

 cart.    s(47) = (  0.0000000  0.0000000  1.0000000 )
                  (  1.0000000  0.0000000  0.0000000 )
                  (  0.0000000 -1.0000000  0.0000000 )


      isym = 48     inv. 120 deg rotation - cart. axis [-1,-1,1] 

 cryst.   s(48) = (     1         -1          1      )
                  (     1          0          0      )
                  (     0          0         -1      )

 cart.    s(48) = (  0.0000000  0.0000000  1.0000000 )
                  ( -1.0000000  0.0000000  0.0000000 )
                  (  0.0000000  1.0000000  0.0000000 )


     point group O_h (m-3m) 
     there are 10 classes
     the character table:

       E     8C3   3C2   6C4   6C2'  i     8S6   3s_h  6S4   6s_d 
A_1g   1.00  1.00  1.00  1.00  1.00  1.00  1.00  1.00  1.00  1.00
A_2g   1.00  1.00  1.00 -1.00 -1.00  1.00  1.00  1.00 -1.00 -1.00
E_g    2.00 -1.00  2.00  0.00  0.00  2.00 -1.00  2.00  0.00  0.00
T_1g   3.00  0.00 -1.00  1.00 -1.00  3.00  0.00 -1.00  1.00 -1.00
T_2g   3.00  0.00 -1.00 -1.00  1.00  3.00  0.00 -1.00 -1.00  1.00
A_1u   1.00  1.00  1.00  1.00  1.00 -1.00 -1.00 -1.00 -1.00 -1.00
A_2u   1.00  1.00  1.00 -1.00 -1.00 -1.00 -1.00 -1.00  1.00  1.00
E_u    2.00 -1.00  2.00  0.00  0.00 -2.00  1.00 -2.00  0.00  0.00
T_1u   3.00  0.00 -1.00  1.00 -1.00 -3.00  0.00  1.00 -1.00  1.00
T_2u   3.00  0.00 -1.00 -1.00  1.00 -3.00  0.00  1.00  1.00 -1.00

     the symmetry operations in each class and the name of the first element:

     E        1
          identity                                               
     8C3     17   19   20   18   24   21   22   23
          120 deg rotation - cart. axis [-1,-1,-1]               
     3C2      2    4    3
          180 deg rotation - cart. axis [0,0,1]                  
     6C4      7    8   15   16   12   11
           90 deg rotation - cart. axis [0,0,-1]                 
     6C2'     5    6   14   13   10    9
          180 deg rotation - cart. axis [1,1,0]                  
     i       25
          inversion                                              
     8S6     41   43   44   42   48   45   46   47
          inv. 120 deg rotation - cart. axis [-1,-1,-1]          
     3s_h    26   28   27
          inv. 180 deg rotation - cart. axis [0,0,1]             
     6S4     31   32   39   40   36   35
          inv.  90 deg rotation - cart. axis [0,0,-1]            
     6s_d    29   30   38   37   34   33
          inv. 180 deg rotation - cart. axis [1,1,0]             

   Cartesian axes

     site n.     atom                  positions (alat units)
         1           Fe  tau(   1) = (   0.0000000   0.0000000   0.0000000  )

   Crystallographic axes

     site n.     atom                  positions (cryst. coord.)
         1           Fe  tau(   1) = (  0.0000000  0.0000000  0.0000000  )

     number of k points=   120 (tetrahedron method)
                       cart. coord. in units 2pi/alat
        k(    1) = (   0.0000000   0.0000000   0.0000000), wk =   0.0002963
        k(    2) = (   0.0000000  -0.0666667   0.0666667), wk =   0.0035556
        k(    3) = (   0.0000000  -0.1333333   0.1333333), wk =   0.0035556
        k(    4) = (   0.0000000  -0.2000000   0.2000000), wk =   0.0035556
        k(    5) = (   0.0000000  -0.2666667   0.2666667), wk =   0.0035556
        k(    6) = (   0.0000000  -0.3333333   0.3333333), wk =   0.0035556
        k(    7) = (   0.0000000  -0.4000000   0.4000000), wk =   0.0035556
        k(    8) = (   0.0000000  -0.4666667   0.4666667), wk =   0.0035556
        k(    9) = (  -0.0666667  -0.0666667   0.1333333), wk =   0.0071111
        k(   10) = (  -0.0666667  -0.1333333   0.2000000), wk =   0.0142222
        k(   11) = (  -0.0666667  -0.2000000   0.2666667), wk =   0.0142222
        k(   12) = (  -0.0666667  -0.2666667   0.3333333), wk =   0.0142222
        k(   13) = (  -0.0666667  -0.3333333   0.4000000), wk =   0.0142222
        k(   14) = (  -0.0666667  -0.4000000   0.4666667), wk =   0.0142222
        k(   15) = (  -0.0666667   0.5333333  -0.4666667), wk =   0.0071111
        k(   16) = (  -0.1333333  -0.1333333   0.2666667), wk =   0.0071111
        k(   17) = (  -0.1333333  -0.2000000   0.3333333), wk =   0.0142222
        k(   18) = (  -0.1333333  -0.2666667   0.4000000), wk =   0.0142222
        k(   19) = (  -0.1333333  -0.3333333   0.4666667), wk =   0.0142222
        k(   20) = (  -0.1333333   0.6000000  -0.4666667), wk =   0.0142222
        k(   21) = (  -0.2000000  -0.2000000   0.4000000), wk =   0.0071111
        k(   22) = (  -0.2000000  -0.2666667   0.4666667), wk =   0.0142222
        k(   23) = (  -0.2000000   0.6666667  -0.4666667), wk =   0.0142222
        k(   24) = (  -0.2000000   0.6000000  -0.4000000), wk =   0.0071111
        k(   25) = (  -0.2666667   0.7333333  -0.4666667), wk =   0.0071111
        k(   26) = (  -0.2666667   0.6666667  -0.4000000), wk =   0.0142222
        k(   27) = (  -0.3333333   0.6666667  -0.3333333), wk =   0.0023704
        k(   28) = (   0.0000000   0.0000000   0.1333333), wk =   0.0017778
        k(   29) = (   0.0000000  -0.0666667   0.2000000), wk =   0.0071111
        k(   30) = (   0.0000000  -0.1333333   0.2666667), wk =   0.0071111
        k(   31) = (   0.0000000  -0.2000000   0.3333333), wk =   0.0071111
        k(   32) = (   0.0000000  -0.2666667   0.4000000), wk =   0.0071111
        k(   33) = (   0.0000000  -0.3333333   0.4666667), wk =   0.0071111
        k(   34) = (   0.0000000  -0.4000000   0.5333333), wk =   0.0071111
        k(   35) = (  -0.0666667  -0.0666667   0.2666667), wk =   0.0071111
        k(   36) = (  -0.0666667  -0.1333333   0.3333333), wk =   0.0142222
        k(   37) = (  -0.0666667  -0.2000000   0.4000000), wk =   0.0142222
        k(   38) = (  -0.0666667  -0.2666667   0.4666667), wk =   0.0142222
        k(   39) = (  -0.0666667  -0.3333333   0.5333333), wk =   0.0142222
        k(   40) = (  -0.0666667   0.6000000  -0.4000000), wk =   0.0071111
        k(   41) = (  -0.1333333   0.1333333   0.1333333), wk =   0.0023704
        k(   42) = (  -0.1333333  -0.1333333   0.4000000), wk =   0.0071111
        k(   43) = (  -0.1333333  -0.2000000   0.4666667), wk =   0.0142222
        k(   44) = (  -0.1333333  -0.2666667   0.5333333), wk =   0.0142222
        k(   45) = (  -0.1333333   0.6666667  -0.4000000), wk =   0.0142222
        k(   46) = (  -0.2000000   0.2000000   0.1333333), wk =   0.0071111
        k(   47) = (  -0.2000000  -0.2000000   0.5333333), wk =   0.0071111
        k(   48) = (  -0.2000000   0.7333333  -0.4000000), wk =   0.0142222
        k(   49) = (  -0.2000000   0.6666667  -0.3333333), wk =   0.0071111
        k(   50) = (  -0.2666667   0.2666667   0.1333333), wk =   0.0071111
        k(   51) = (  -0.2666667   0.2000000   0.2000000), wk =   0.0071111
        k(   52) = (  -0.2666667   0.7333333  -0.3333333), wk =   0.0071111
        k(   53) = (  -0.3333333   0.3333333   0.1333333), wk =   0.0071111
        k(   54) = (  -0.3333333   0.2666667   0.2000000), wk =   0.0142222
        k(   55) = (  -0.4000000   0.4000000   0.1333333), wk =   0.0071111
        k(   56) = (  -0.4000000   0.3333333   0.2000000), wk =   0.0142222
        k(   57) = (  -0.4000000   0.2666667   0.2666667), wk =   0.0071111
        k(   58) = (   0.5333333  -0.5333333   0.1333333), wk =   0.0071111
        k(   59) = (   0.5333333  -0.6000000   0.2000000), wk =   0.0142222
        k(   60) = (   0.5333333  -0.6666667   0.2666667), wk =   0.0142222
        k(   61) = (   0.4666667  -0.5333333   0.2000000), wk =   0.0071111
        k(   62) = (   0.4666667  -0.6000000   0.2666667), wk =   0.0142222
        k(   63) = (   0.4666667  -0.6666667   0.3333333), wk =   0.0071111
        k(   64) = (   0.4000000  -0.6000000   0.3333333), wk =   0.0071111
        k(   65) = (   0.0000000   0.0000000   0.2666667), wk =   0.0017778
        k(   66) = (   0.0000000  -0.0666667   0.3333333), wk =   0.0071111
        k(   67) = (   0.0000000  -0.1333333   0.4000000), wk =   0.0071111
        k(   68) = (   0.0000000  -0.2000000   0.4666667), wk =   0.0071111
        k(   69) = (   0.0000000  -0.2666667   0.5333333), wk =   0.0071111
        k(   70) = (   0.0000000  -0.3333333   0.6000000), wk =   0.0071111
        k(   71) = (  -0.0666667  -0.0666667   0.4000000), wk =   0.0071111
        k(   72) = (  -0.0666667  -0.1333333   0.4666667), wk =   0.0142222
        k(   73) = (  -0.0666667  -0.2000000   0.5333333), wk =   0.0142222
        k(   74) = (  -0.0666667  -0.2666667   0.6000000), wk =   0.0142222
        k(   75) = (  -0.0666667   0.6666667  -0.3333333), wk =   0.0071111
        k(   76) = (  -0.1333333  -0.1333333   0.5333333), wk =   0.0071111
        k(   77) = (  -0.1333333  -0.2000000   0.6000000), wk =   0.0142222
        k(   78) = (  -0.1333333   0.7333333  -0.3333333), wk =   0.0142222
        k(   79) = (  -0.2000000   0.8000000  -0.3333333), wk =   0.0071111
        k(   80) = (  -0.2000000   0.7333333  -0.2666667), wk =   0.0071111
        k(   81) = (  -0.2666667   0.2666667   0.2666667), wk =   0.0023704
        k(   82) = (  -0.3333333   0.3333333   0.2666667), wk =   0.0071111
        k(   83) = (   0.6000000  -0.6000000   0.2666667), wk =   0.0071111
        k(   84) = (   0.6000000  -0.6666667   0.3333333), wk =   0.0071111
        k(   85) = (   0.5333333  -0.5333333   0.2666667), wk =   0.0071111
        k(   86) = (   0.5333333  -0.6000000   0.3333333), wk =   0.0142222
        k(   87) = (   0.4666667  -0.5333333   0.3333333), wk =   0.0071111
        k(   88) = (   0.4666667  -0.6000000   0.4000000), wk =   0.0071111
        k(   89) = (   0.0000000   0.0000000   0.4000000), wk =   0.0017778
        k(   90) = (   0.0000000  -0.0666667   0.4666667), wk =   0.0071111
        k(   91) = (   0.0000000  -0.1333333   0.5333333), wk =   0.0071111
        k(   92) = (   0.0000000  -0.2000000   0.6000000), wk =   0.0071111
        k(   93) = (   0.0000000  -0.2666667   0.6666667), wk =   0.0071111
        k(   94) = (  -0.0666667  -0.0666667   0.5333333), wk =   0.0071111
        k(   95) = (  -0.0666667  -0.1333333   0.6000000), wk =   0.0142222
        k(   96) = (  -0.0666667  -0.2000000   0.6666667), wk =   0.0142222
        k(   97) = (  -0.0666667   0.7333333  -0.2666667), wk =   0.0071111
        k(   98) = (  -0.1333333  -0.1333333   0.6666667), wk =   0.0071111
        k(   99) = (  -0.1333333   0.8000000  -0.2666667), wk =   0.0142222
        k(  100) = (  -0.2000000   0.8000000  -0.2000000), wk =   0.0023704
        k(  101) = (   0.6000000  -0.6000000   0.4000000), wk =   0.0023704
        k(  102) = (   0.5333333  -0.5333333   0.4000000), wk =   0.0071111
        k(  103) = (   0.4666667  -0.5333333   0.4666667), wk =   0.0023704
        k(  104) = (   0.0000000   0.0000000   0.5333333), wk =   0.0017778
        k(  105) = (   0.0000000  -0.0666667   0.6000000), wk =   0.0071111
        k(  106) = (   0.0000000  -0.1333333   0.6666667), wk =   0.0071111
        k(  107) = (   0.0000000  -0.2000000   0.7333333), wk =   0.0071111
        k(  108) = (  -0.0666667  -0.0666667   0.6666667), wk =   0.0071111
        k(  109) = (  -0.0666667  -0.1333333   0.7333333), wk =   0.0142222
        k(  110) = (  -0.0666667   0.8000000  -0.2000000), wk =   0.0071111
        k(  111) = (  -0.1333333   0.8666667  -0.2000000), wk =   0.0071111
        k(  112) = (   0.0000000   0.0000000   0.6666667), wk =   0.0017778
        k(  113) = (   0.0000000  -0.0666667   0.7333333), wk =   0.0071111
        k(  114) = (   0.0000000  -0.1333333   0.8000000), wk =   0.0071111
        k(  115) = (  -0.0666667  -0.0666667   0.8000000), wk =   0.0071111
        k(  116) = (  -0.0666667   0.8666667  -0.1333333), wk =   0.0071111
        k(  117) = (   0.0000000   0.0000000   0.8000000), wk =   0.0017778
        k(  118) = (   0.0000000  -0.0666667   0.8666667), wk =   0.0071111
        k(  119) = (  -0.0666667   0.9333333  -0.0666667), wk =   0.0023704
        k(  120) = (   0.0000000   0.0000000   0.9333333), wk =   0.0017778

                       cryst. coord.
        k(    1) = (   0.0000000   0.0000000   0.0000000), wk =   0.0002963
        k(    2) = (   0.0000000   0.0000000   0.0666667), wk =   0.0035556
        k(    3) = (   0.0000000   0.0000000   0.1333333), wk =   0.0035556
        k(    4) = (   0.0000000   0.0000000   0.2000000), wk =   0.0035556
        k(    5) = (   0.0000000   0.0000000   0.2666667), wk =   0.0035556
        k(    6) = (   0.0000000   0.0000000   0.3333333), wk =   0.0035556
        k(    7) = (   0.0000000   0.0000000   0.4000000), wk =   0.0035556
        k(    8) = (   0.0000000   0.0000000   0.4666667), wk =   0.0035556
        k(    9) = (   0.0000000   0.0666667   0.1333333), wk =   0.0071111
        k(   10) = (  -0.0000000   0.0666667   0.2000000), wk =   0.0142222
        k(   11) = (   0.0000000   0.0666667   0.2666667), wk =   0.0142222
        k(   12) = (  -0.0000000   0.0666667   0.3333333), wk =   0.0142222
        k(   13) = (   0.0000000   0.0666667   0.4000000), wk =   0.0142222
        k(   14) = (   0.0000000   0.0666667   0.4666667), wk =   0.0142222
        k(   15) = (   0.0000000   0.0666667  -0.4666667), wk =   0.0071111
        k(   16) = (   0.0000000   0.1333333   0.2666667), wk =   0.0071111
        k(   17) = (  -0.0000000   0.1333333   0.3333333), wk =   0.0142222
        k(   18) = (  -0.0000000   0.1333333   0.4000000), wk =   0.0142222
        k(   19) = (   0.0000000   0.1333333   0.4666667), wk =   0.0142222
        k(   20) = (   0.0000000   0.1333333  -0.4666667), wk =   0.0142222
        k(   21) = (   0.0000000   0.2000000   0.4000000), wk =   0.0071111
        k(   22) = (   0.0000000   0.2000000   0.4666667), wk =   0.0142222
        k(   23) = (  -0.0000000   0.2000000  -0.4666667), wk =   0.0142222
        k(   24) = (   0.0000000   0.2000000  -0.4000000), wk =   0.0071111
        k(   25) = (  -0.0000000   0.2666667  -0.4666667), wk =   0.0071111
        k(   26) = (  -0.0000000   0.2666667  -0.4000000), wk =   0.0142222
        k(   27) = (  -0.0000000   0.3333333  -0.3333333), wk =   0.0023704
        k(   28) = (   0.0666667   0.0666667   0.0666667), wk =   0.0017778
        k(   29) = (   0.0666667   0.0666667   0.1333333), wk =   0.0071111
        k(   30) = (   0.0666667   0.0666667   0.2000000), wk =   0.0071111
        k(   31) = (   0.0666667   0.0666667   0.2666667), wk =   0.0071111
        k(   32) = (   0.0666667   0.0666667   0.3333333), wk =   0.0071111
        k(   33) = (   0.0666667   0.0666667   0.4000000), wk =   0.0071111
        k(   34) = (   0.0666667   0.0666667   0.4666667), wk =   0.0071111
        k(   35) = (   0.0666667   0.1333333   0.2000000), wk =   0.0071111
        k(   36) = (   0.0666667   0.1333333   0.2666667), wk =   0.0142222
        k(   37) = (   0.0666667   0.1333333   0.3333333), wk =   0.0142222
        k(   38) = (   0.0666667   0.1333333   0.4000000), wk =   0.0142222
        k(   39) = (   0.0666667   0.1333333   0.4666667), wk =   0.0142222
        k(   40) = (   0.0666667   0.1333333  -0.4666667), wk =   0.0071111
        k(   41) = (   0.0666667   0.2000000   0.0666667), wk =   0.0023704
        k(   42) = (   0.0666667   0.2000000   0.3333333), wk =   0.0071111
        k(   43) = (   0.0666667   0.2000000   0.4000000), wk =   0.0142222
        k(   44) = (   0.0666667   0.2000000   0.4666667), wk =   0.0142222
        k(   45) = (   0.0666667   0.2000000  -0.4666667), wk =   0.0142222
        k(   46) = (   0.0666667   0.2666667   0.0666667), wk =   0.0071111
        k(   47) = (   0.0666667   0.2666667   0.4666667), wk =   0.0071111
        k(   48) = (   0.0666667   0.2666667  -0.4666667), wk =   0.0142222
        k(   49) = (   0.0666667   0.2666667  -0.4000000), wk =   0.0071111
        k(   50) = (   0.0666667   0.3333333   0.0666667), wk =   0.0071111
        k(   51) = (   0.0666667   0.3333333   0.1333333), wk =   0.0071111
        k(   52) = (   0.0666667   0.3333333  -0.4000000), wk =   0.0071111
        k(   53) = (   0.0666667   0.4000000   0.0666667), wk =   0.0071111
        k(   54) = (   0.0666667   0.4000000   0.1333333), wk =   0.0142222
        k(   55) = (   0.0666667   0.4666667   0.0666667), wk =   0.0071111
        k(   56) = (   0.0666667   0.4666667   0.1333333), wk =   0.0142222
        k(   57) = (   0.0666667   0.4666667   0.2000000), wk =   0.0071111
        k(   58) = (   0.0666667  -0.4666667   0.0666667), wk =   0.0071111
        k(   59) = (   0.0666667  -0.4666667   0.1333333), wk =   0.0142222
        k(   60) = (   0.0666667  -0.4666667   0.2000000), wk =   0.0142222
        k(   61) = (   0.0666667  -0.4000000   0.1333333), wk =   0.0071111
        k(   62) = (   0.0666667  -0.4000000   0.2000000), wk =   0.0142222
        k(   63) = (   0.0666667  -0.4000000   0.2666667), wk =   0.0071111
        k(   64) = (   0.0666667  -0.3333333   0.2666667), wk =   0.0071111
        k(   65) = (   0.1333333   0.1333333   0.1333333), wk =   0.0017778
        k(   66) = (   0.1333333   0.1333333   0.2000000), wk =   0.0071111
        k(   67) = (   0.1333333   0.1333333   0.2666667), wk =   0.0071111
        k(   68) = (   0.1333333   0.1333333   0.3333333), wk =   0.0071111
        k(   69) = (   0.1333333   0.1333333   0.4000000), wk =   0.0071111
        k(   70) = (   0.1333333   0.1333333   0.4666667), wk =   0.0071111
        k(   71) = (   0.1333333   0.2000000   0.2666667), wk =   0.0071111
        k(   72) = (   0.1333333   0.2000000   0.3333333), wk =   0.0142222
        k(   73) = (   0.1333333   0.2000000   0.4000000), wk =   0.0142222
        k(   74) = (   0.1333333   0.2000000   0.4666667), wk =   0.0142222
        k(   75) = (   0.1333333   0.2000000  -0.4666667), wk =   0.0071111
        k(   76) = (   0.1333333   0.2666667   0.4000000), wk =   0.0071111
        k(   77) = (   0.1333333   0.2666667   0.4666667), wk =   0.0142222
        k(   78) = (   0.1333333   0.2666667  -0.4666667), wk =   0.0142222
        k(   79) = (   0.1333333   0.3333333  -0.4666667), wk =   0.0071111
        k(   80) = (   0.1333333   0.3333333  -0.4000000), wk =   0.0071111
        k(   81) = (   0.1333333   0.4000000   0.1333333), wk =   0.0023704
        k(   82) = (   0.1333333   0.4666667   0.1333333), wk =   0.0071111
        k(   83) = (   0.1333333  -0.4666667   0.1333333), wk =   0.0071111
        k(   84) = (   0.1333333  -0.4666667   0.2000000), wk =   0.0071111
        k(   85) = (   0.1333333  -0.4000000   0.1333333), wk =   0.0071111
        k(   86) = (   0.1333333  -0.4000000   0.2000000), wk =   0.0142222
        k(   87) = (   0.1333333  -0.3333333   0.2000000), wk =   0.0071111
        k(   88) = (   0.1333333  -0.3333333   0.2666667), wk =   0.0071111
        k(   89) = (   0.2000000   0.2000000   0.2000000), wk =   0.0017778
        k(   90) = (   0.2000000   0.2000000   0.2666667), wk =   0.0071111
        k(   91) = (   0.2000000   0.2000000   0.3333333), wk =   0.0071111
        k(   92) = (   0.2000000   0.2000000   0.4000000), wk =   0.0071111
        k(   93) = (   0.2000000   0.2000000   0.4666667), wk =   0.0071111
        k(   94) = (   0.2000000   0.2666667   0.3333333), wk =   0.0071111
        k(   95) = (   0.2000000   0.2666667   0.4000000), wk =   0.0142222
        k(   96) = (   0.2000000   0.2666667   0.4666667), wk =   0.0142222
        k(   97) = (   0.2000000   0.2666667  -0.4666667), wk =   0.0071111
        k(   98) = (   0.2000000   0.3333333   0.4666667), wk =   0.0071111
        k(   99) = (   0.2000000   0.3333333  -0.4666667), wk =   0.0142222
        k(  100) = (   0.2000000   0.4000000  -0.4000000), wk =   0.0023704
        k(  101) = (   0.2000000  -0.4000000   0.2000000), wk =   0.0023704
        k(  102) = (   0.2000000  -0.3333333   0.2000000), wk =   0.0071111
        k(  103) = (   0.2000000  -0.2666667   0.2666667), wk =   0.0023704
        k(  104) = (   0.2666667   0.2666667   0.2666667), wk =   0.0017778
        k(  105) = (   0.2666667   0.2666667   0.3333333), wk =   0.0071111
        k(  106) = (   0.2666667   0.2666667   0.4000000), wk =   0.0071111
        k(  107) = (   0.2666667   0.2666667   0.4666667), wk =   0.0071111
        k(  108) = (   0.2666667   0.3333333   0.4000000), wk =   0.0071111
        k(  109) = (   0.2666667   0.3333333   0.4666667), wk =   0.0142222
        k(  110) = (   0.2666667   0.3333333  -0.4666667), wk =   0.0071111
        k(  111) = (   0.2666667   0.4000000  -0.4666667), wk =   0.0071111
        k(  112) = (   0.3333333   0.3333333   0.3333333), wk =   0.0017778
        k(  113) = (   0.3333333   0.3333333   0.4000000), wk =   0.0071111
        k(  114) = (   0.3333333   0.3333333   0.4666667), wk =   0.0071111
        k(  115) = (   0.3333333   0.4000000   0.4666667), wk =   0.0071111
        k(  116) = (   0.3333333   0.4000000  -0.4666667), wk =   0.0071111
        k(  117) = (   0.4000000   0.4000000   0.4000000), wk =   0.0017778
        k(  118) = (   0.4000000   0.4000000   0.4666667), wk =   0.0071111
        k(  119) = (   0.4000000   0.4666667  -0.4666667), wk =   0.0023704
        k(  120) = (   0.4666667   0.4666667   0.4666667), wk =   0.0017778

     Dense  grid:    10425 G-vectors     FFT dimensions: (  30,  30,  30)

     Smooth grid:     2659 G-vectors     FFT dimensions: (  20,  20,  20)

     Dynamical RAM for                 wfc:       0.10 MB

     Dynamical RAM for     wfc (w. buffer):       0.10 MB

     Dynamical RAM for           str. fact:       0.16 MB

     Dynamical RAM for           local pot:       0.00 MB

     Dynamical RAM for          nlocal pot:       0.09 MB

     Dynamical RAM for                qrad:       1.61 MB

     Dynamical RAM for          rho,v,vnew:       2.19 MB

     Dynamical RAM for           G-vectors:       0.62 MB

     Dynamical RAM for          h,s,v(r/c):       0.07 MB

     Dynamical RAM for          <psi|beta>:       0.01 MB

     Dynamical RAM for                 psi:       0.20 MB

     Dynamical RAM for                hpsi:       0.20 MB

     Dynamical RAM for                spsi:       0.20 MB

     Dynamical RAM for      wfcinit/wfcrot:       0.21 MB

     Dynamical RAM for           addusdens:      29.91 MB

     Estimated static dynamical RAM per process >       6.32 MB

     Estimated max dynamical RAM per process >      36.22 MB

     Check: negative core charge=   -0.000042
     Generating pointlists ...
     new r_m :   0.3572 (alat units)  1.9149 (a.u.) for type    1

     The potential is recalculated from file :
     ./fe_nfm.save/charge-density

     Starting wfcs are   13 randomized atomic wfcs +    7 random wfcs

     Band Structure Calculation
     Davidson diagonalization with overlap

     Computing kpt #:     1  of   240
     total cpu time spent up to now is        2.7 secs

     Computing kpt #:     2  of   240
     total cpu time spent up to now is        2.9 secs

     Computing kpt #:     3  of   240
     total cpu time spent up to now is        3.1 secs

     Computing kpt #:     4  of   240
     total cpu time spent up to now is        3.3 secs

     Computing kpt #:     5  of   240
     total cpu time spent up to now is        3.5 secs

     Computing kpt #:     6  of   240
     total cpu time spent up to now is        3.7 secs

     Computing kpt #:     7  of   240
     total cpu time spent up to now is        3.8 secs

     Computing kpt #:     8  of   240
     total cpu time spent up to now is        4.0 secs

     Computing kpt #:     9  of   240
     total cpu time spent up to now is        4.2 secs

     Computing kpt #:    10  of   240
     total cpu time spent up to now is        4.4 secs

     Computing kpt #:    11  of   240
     total cpu time spent up to now is        4.6 secs

     Computing kpt #:    12  of   240
     total cpu time spent up to now is        4.8 secs

     Computing kpt #:    13  of   240
     total cpu time spent up to now is        5.0 secs

     Computing kpt #:    14  of   240
     total cpu time spent up to now is        5.2 secs

     Computing kpt #:    15  of   240
     total cpu time spent up to now is        5.5 secs

     Computing kpt #:    16  of   240
     total cpu time spent up to now is        5.7 secs

     Computing kpt #:    17  of   240
     total cpu time spent up to now is        5.9 secs

     Computing kpt #:    18  of   240
     total cpu time spent up to now is        6.1 secs

     Computing kpt #:    19  of   240
     total cpu time spent up to now is        6.3 secs

     Computing kpt #:    20  of   240
     total cpu time spent up to now is        6.5 secs

     Computing kpt #:    21  of   240
     total cpu time spent up to now is        6.7 secs

     Computing kpt #:    22  of   240
     total cpu time spent up to now is        6.8 secs

     Computing kpt #:    23  of   240
     total cpu time spent up to now is        7.0 secs

     Computing kpt #:    24  of   240
     total cpu time spent up to now is        7.2 secs

     Computing kpt #:    25  of   240
     total cpu time spent up to now is        7.4 secs

     Computing kpt #:    26  of   240
     total cpu time spent up to now is        7.6 secs

     Computing kpt #:    27  of   240
     total cpu time spent up to now is        7.8 secs

     Computing kpt #:    28  of   240
     total cpu time spent up to now is        8.0 secs

     Computing kpt #:    29  of   240
     total cpu time spent up to now is        8.2 secs

     Computing kpt #:    30  of   240
     total cpu time spent up to now is        8.4 secs

     Computing kpt #:    31  of   240
     total cpu time spent up to now is        8.7 secs

     Computing kpt #:    32  of   240
     total cpu time spent up to now is        8.8 secs

     Computing kpt #:    33  of   240
     total cpu time spent up to now is        9.1 secs

     Computing kpt #:    34  of   240
     total cpu time spent up to now is        9.4 secs

     Computing kpt #:    35  of   240
     total cpu time spent up to now is        9.6 secs

     Computing kpt #:    36  of   240
     total cpu time spent up to now is        9.8 secs

     Computing kpt #:    37  of   240
     total cpu time spent up to now is       10.0 secs

     Computing kpt #:    38  of   240
     total cpu time spent up to now is       10.3 secs

     Computing kpt #:    39  of   240
     total cpu time spent up to now is       10.6 secs

     Computing kpt #:    40  of   240
     total cpu time spent up to now is       10.8 secs

     Computing kpt #:    41  of   240
     total cpu time spent up to now is       10.9 secs

     Computing kpt #:    42  of   240
     total cpu time spent up to now is       11.1 secs

     Computing kpt #:    43  of   240
     total cpu time spent up to now is       11.3 secs

     Computing kpt #:    44  of   240
     total cpu time spent up to now is       11.5 secs

     Computing kpt #:    45  of   240
     total cpu time spent up to now is       11.6 secs

     Computing kpt #:    46  of   240
     total cpu time spent up to now is       11.8 secs

     Computing kpt #:    47  of   240
     total cpu time spent up to now is       12.0 secs

     Computing kpt #:    48  of   240
     total cpu time spent up to now is       12.3 secs

     Computing kpt #:    49  of   240
     total cpu time spent up to now is       12.5 secs

     Computing kpt #:    50  of   240
     total cpu time spent up to now is       12.7 secs

     Computing kpt #:    51  of   240
     total cpu time spent up to now is       12.9 secs

     Computing kpt #:    52  of   240
     total cpu time spent up to now is       13.1 secs

     Computing kpt #:    53  of   240
     total cpu time spent up to now is       13.3 secs

     Computing kpt #:    54  of   240
     total cpu time spent up to now is       13.5 secs

     Computing kpt #:    55  of   240
     total cpu time spent up to now is       13.7 secs

     Computing kpt #:    56  of   240
     total cpu time spent up to now is       13.9 secs

     Computing kpt #:    57  of   240
     total cpu time spent up to now is       14.0 secs

     Computing kpt #:    58  of   240
     total cpu time spent up to now is       14.2 secs

     Computing kpt #:    59  of   240
     total cpu time spent up to now is       14.4 secs

     Computing kpt #:    60  of   240
     total cpu time spent up to now is       14.5 secs

     Computing kpt #:    61  of   240
     total cpu time spent up to now is       14.7 secs

     Computing kpt #:    62  of   240
     total cpu time spent up to now is       14.9 secs

     Computing kpt #:    63  of   240
     total cpu time spent up to now is       15.0 secs

     Computing kpt #:    64  of   240
     total cpu time spent up to now is       15.2 secs

     Computing kpt #:    65  of   240
     total cpu time spent up to now is       15.4 secs

     Computing kpt #:    66  of   240
     total cpu time spent up to now is       15.5 secs

     Computing kpt #:    67  of   240
     total cpu time spent up to now is       15.8 secs

     Computing kpt #:    68  of   240
     total cpu time spent up to now is       16.0 secs

     Computing kpt #:    69  of   240
     total cpu time spent up to now is       16.2 secs

     Computing kpt #:    70  of   240
     total cpu time spent up to now is       16.4 secs

     Computing kpt #:    71  of   240
     total cpu time spent up to now is       16.6 secs

     Computing kpt #:    72  of   240
     total cpu time spent up to now is       16.8 secs

     Computing kpt #:    73  of   240
     total cpu time spent up to now is       17.0 secs

     Computing kpt #:    74  of   240
     total cpu time spent up to now is       17.2 secs

     Computing kpt #:    75  of   240
     total cpu time spent up to now is       17.4 secs

     Computing kpt #:    76  of   240
     total cpu time spent up to now is       17.5 secs

     Computing kpt #:    77  of   240
     total cpu time spent up to now is       17.7 secs

     Computing kpt #:    78  of   240
     total cpu time spent up to now is       17.9 secs

     Computing kpt #:    79  of   240
     total cpu time spent up to now is       18.1 secs

     Computing kpt #:    80  of   240
     total cpu time spent up to now is       18.3 secs

     Computing kpt #:    81  of   240
     total cpu time spent up to now is       18.5 secs

     Computing kpt #:    82  of   240
     total cpu time spent up to now is       18.7 secs

     Computing kpt #:    83  of   240
     total cpu time spent up to now is       18.8 secs

     Computing kpt #:    84  of   240
     total cpu time spent up to now is       19.0 secs

     Computing kpt #:    85  of   240
     total cpu time spent up to now is       19.2 secs

     Computing kpt #:    86  of   240
     total cpu time spent up to now is       19.4 secs

     Computing kpt #:    87  of   240
     total cpu time spent up to now is       19.6 secs

     Computing kpt #:    88  of   240
     total cpu time spent up to now is       19.8 secs

     Computing kpt #:    89  of   240
     total cpu time spent up to now is       20.0 secs

     Computing kpt #:    90  of   240
     total cpu time spent up to now is       20.2 secs

     Computing kpt #:    91  of   240
     total cpu time spent up to now is       20.4 secs

     Computing kpt #:    92  of   240
     total cpu time spent up to now is       20.5 secs

     Computing kpt #:    93  of   240
     total cpu time spent up to now is       20.7 secs

     Computing kpt #:    94  of   240
     total cpu time spent up to now is       20.9 secs

     Computing kpt #:    95  of   240
     total cpu time spent up to now is       21.1 secs

     Computing kpt #:    96  of   240
     total cpu time spent up to now is       21.3 secs

     Computing kpt #:    97  of   240
     total cpu time spent up to now is       21.5 secs

     Computing kpt #:    98  of   240
     total cpu time spent up to now is       21.7 secs

     Computing kpt #:    99  of   240
     total cpu time spent up to now is       21.8 secs

     Computing kpt #:   100  of   240
     total cpu time spent up to now is       22.0 secs

     Computing kpt #:   101  of   240
     total cpu time spent up to now is       22.2 secs

     Computing kpt #:   102  of   240
     total cpu time spent up to now is       22.3 secs

     Computing kpt #:   103  of   240
     total cpu time spent up to now is       22.5 secs

     Computing kpt #:   104  of   240
     total cpu time spent up to now is       22.7 secs

     Computing kpt #:   105  of   240
     total cpu time spent up to now is       22.9 secs

     Computing kpt #:   106  of   240
     total cpu time spent up to now is       23.1 secs

     Computing kpt #:   107  of   240
     total cpu time spent up to now is       23.2 secs

     Computing kpt #:   108  of   240
     total cpu time spent up to now is       23.4 secs

     Computing kpt #:   109  of   240
     total cpu time spent up to now is       23.6 secs

     Computing kpt #:   110  of   240
     total cpu time spent up to now is       23.7 secs

     Computing kpt #:   111  of   240
     total cpu time spent up to now is       23.9 secs

     Computing kpt #:   112  of   240
     total cpu time spent up to now is       24.1 secs

     Computing kpt #:   113  of   240
     total cpu time spent up to now is       24.2 secs

     Computing kpt #:   114  of   240
     total cpu time spent up to now is       24.4 secs

     Computing kpt #:   115  of   240
     total cpu time spent up to now is       24.5 secs

     Computing kpt #:   116  of   240
     total cpu time spent up to now is       24.7 secs

     Computing kpt #:   117  of   240
     total cpu time spent up to now is       24.8 secs

     Computing kpt #:   118  of   240
     total cpu time spent up to now is       25.0 secs

     Computing kpt #:   119  of   240
     total cpu time spent up to now is       25.2 secs

     Computing kpt #:   120  of   240
     total cpu time spent up to now is       25.3 secs

     Computing kpt #:   121  of   240
     total cpu time spent up to now is       25.5 secs

     Computing kpt #:   122  of   240
     total cpu time spent up to now is       25.7 secs

     Computing kpt #:   123  of   240
     total cpu time spent up to now is       25.9 secs

     Computing kpt #:   124  of   240
     total cpu time spent up to now is       26.0 secs

     Computing kpt #:   125  of   240
     total cpu time spent up to now is       26.2 secs

     Computing kpt #:   126  of   240
     total cpu time spent up to now is       26.4 secs

     Computing kpt #:   127  of   240
     total cpu time spent up to now is       26.5 secs

     Computing kpt #:   128  of   240
     total cpu time spent up to now is       26.7 secs

     Computing kpt #:   129  of   240
     total cpu time spent up to now is       26.9 secs

     Computing kpt #:   130  of   240
     total cpu time spent up to now is       27.0 secs

     Computing kpt #:   131  of   240
     total cpu time spent up to now is       27.2 secs

     Computing kpt #:   132  of   240
     total cpu time spent up to now is       27.4 secs

     Computing kpt #:   133  of   240
     total cpu time spent up to now is       27.6 secs

     Computing kpt #:   134  of   240
     total cpu time spent up to now is       27.7 secs

     Computing kpt #:   135  of   240
     total cpu time spent up to now is       27.9 secs

     Computing kpt #:   136  of   240
     total cpu time spent up to now is       28.1 secs

     Computing kpt #:   137  of   240
     total cpu time spent up to now is       28.2 secs

     Computing kpt #:   138  of   240
     total cpu time spent up to now is       28.4 secs

     Computing kpt #:   139  of   240
     total cpu time spent up to now is       28.5 secs

     Computing kpt #:   140  of   240
     total cpu time spent up to now is       28.7 secs

     Computing kpt #:   141  of   240
     total cpu time spent up to now is       28.9 secs

     Computing kpt #:   142  of   240
     total cpu time spent up to now is       29.0 secs

     Computing kpt #:   143  of   240
     total cpu time spent up to now is       29.1 secs

     Computing kpt #:   144  of   240
     total cpu time spent up to now is       29.3 secs

     Computing kpt #:   145  of   240
     total cpu time spent up to now is       29.5 secs

     Computing kpt #:   146  of   240
     total cpu time spent up to now is       29.7 secs

     Computing kpt #:   147  of   240
     total cpu time spent up to now is       29.8 secs

     Computing kpt #:   148  of   240
     total cpu time spent up to now is       30.0 secs

     Computing kpt #:   149  of   240
     total cpu time spent up to now is       30.2 secs

     Computing kpt #:   150  of   240
     total cpu time spent up to now is       30.4 secs

     Computing kpt #:   151  of   240
     total cpu time spent up to now is       30.5 secs

     Computing kpt #:   152  of   240
     total cpu time spent up to now is       30.7 secs

     Computing kpt #:   153  of   240
     total cpu time spent up to now is       30.9 secs

     Computing kpt #:   154  of   240
     total cpu time spent up to now is       31.0 secs

     Computing kpt #:   155  of   240
     total cpu time spent up to now is       31.2 secs

     Computing kpt #:   156  of   240
     total cpu time spent up to now is       31.4 secs

     Computing kpt #:   157  of   240
     total cpu time spent up to now is       31.6 secs

     Computing kpt #:   158  of   240
     total cpu time spent up to now is       31.8 secs

     Computing kpt #:   159  of   240
     total cpu time spent up to now is       31.9 secs

     Computing kpt #:   160  of   240
     total cpu time spent up to now is       32.1 secs

     Computing kpt #:   161  of   240
     total cpu time spent up to now is       32.2 secs

     Computing kpt #:   162  of   240
     total cpu time spent up to now is       32.4 secs

     Computing kpt #:   163  of   240
     total cpu time spent up to now is       32.6 secs

     Computing kpt #:   164  of   240
     total cpu time spent up to now is       32.8 secs

     Computing kpt #:   165  of   240
     total cpu time spent up to now is       32.9 secs

     Computing kpt #:   166  of   240
     total cpu time spent up to now is       33.1 secs

     Computing kpt #:   167  of   240
     total cpu time spent up to now is       33.3 secs

     Computing kpt #:   168  of   240
     total cpu time spent up to now is       33.4 secs

     Computing kpt #:   169  of   240
     total cpu time spent up to now is       33.6 secs

     Computing kpt #:   170  of   240
     total cpu time spent up to now is       33.8 secs

     Computing kpt #:   171  of   240
     total cpu time spent up to now is       33.9 secs

     Computing kpt #:   172  of   240
     total cpu time spent up to now is       34.1 secs

     Computing kpt #:   173  of   240
     total cpu time spent up to now is       34.2 secs

     Computing kpt #:   174  of   240
     total cpu time spent up to now is       34.4 secs

     Computing kpt #:   175  of   240
     total cpu time spent up to now is       34.6 secs

     Computing kpt #:   176  of   240
     total cpu time spent up to now is       34.7 secs

     Computing kpt #:   177  of   240
     total cpu time spent up to now is       34.8 secs

     Computing kpt #:   178  of   240
     total cpu time spent up to now is       35.0 secs

     Computing kpt #:   179  of   240
     total cpu time spent up to now is       35.2 secs

     Computing kpt #:   180  of   240
     total cpu time spent up to now is       35.3 secs

     Computing kpt #:   181  of   240
     total cpu time spent up to now is       35.5 secs

     Computing kpt #:   182  of   240
     total cpu time spent up to now is       35.6 secs

     Computing kpt #:   183  of   240
     total cpu time spent up to now is       35.8 secs

     Computing kpt #:   184  of   240
     total cpu time spent up to now is       36.0 secs

     Computing kpt #:   185  of   240
     total cpu time spent up to now is       36.1 secs

     Computing kpt #:   186  of   240
     total cpu time spent up to now is       36.3 secs

     Computing kpt #:   187  of   240
     total cpu time spent up to now is       36.5 secs

     Computing kpt #:   188  of   240
     total cpu time spent up to now is       36.7 secs

     Computing kpt #:   189  of   240
     total cpu time spent up to now is       37.0 secs

     Computing kpt #:   190  of   240
     total cpu time spent up to now is       37.2 secs

     Computing kpt #:   191  of   240
     total cpu time spent up to now is       37.5 secs

     Computing kpt #:   192  of   240
     total cpu time spent up to now is       37.7 secs

     Computing kpt #:   193  of   240
     total cpu time spent up to now is       37.9 secs

     Computing kpt #:   194  of   240
     total cpu time spent up to now is       38.0 secs

     Computing kpt #:   195  of   240
     total cpu time spent up to now is       38.2 secs

     Computing kpt #:   196  of   240
     total cpu time spent up to now is       38.4 secs

     Computing kpt #:   197  of   240
     total cpu time spent up to now is       38.6 secs

     Computing kpt #:   198  of   240
     total cpu time spent up to now is       38.8 secs

     Computing kpt #:   199  of   240
     total cpu time spent up to now is       38.9 secs

     Computing kpt #:   200  of   240
     total cpu time spent up to now is       39.1 secs

     Computing kpt #:   201  of   240
     total cpu time spent up to now is       39.3 secs

     Computing kpt #:   202  of   240
     total cpu time spent up to now is       39.4 secs

     Computing kpt #:   203  of   240
     total cpu time spent up to now is       39.5 secs

     Computing kpt #:   204  of   240
     total cpu time spent up to now is       39.7 secs

     Computing kpt #:   205  of   240
     total cpu time spent up to now is       39.9 secs

     Computing kpt #:   206  of   240
     total cpu time spent up to now is       40.0 secs

     Computing kpt #:   207  of   240
     total cpu time spent up to now is       40.2 secs

     Computing kpt #:   208  of   240
     total cpu time spent up to now is       40.4 secs

     Computing kpt #:   209  of   240
     total cpu time spent up to now is       40.5 secs

     Computing kpt #:   210  of   240
     total cpu time spent up to now is       40.7 secs

     Computing kpt #:   211  of   240
     total cpu time spent up to now is       40.9 secs

     Computing kpt #:   212  of   240
     total cpu time spent up to now is       41.0 secs

     Computing kpt #:   213  of   240
     total cpu time spent up to now is       41.3 secs

     Computing kpt #:   214  of   240
     total cpu time spent up to now is       41.6 secs

     Computing kpt #:   215  of   240
     total cpu time spent up to now is       41.8 secs

     Computing kpt #:   216  of   240
     total cpu time spent up to now is       42.0 secs

     Computing kpt #:   217  of   240
     total cpu time spent up to now is       42.2 secs

     Computing kpt #:   218  of   240
     total cpu time spent up to now is       42.4 secs

     Computing kpt #:   219  of   240
     total cpu time spent up to now is       42.6 secs

     Computing kpt #:   220  of   240
     total cpu time spent up to now is       42.7 secs

     Computing kpt #:   221  of   240
     total cpu time spent up to now is       43.0 secs

     Computing kpt #:   222  of   240
     total cpu time spent up to now is       43.2 secs

     Computing kpt #:   223  of   240
     total cpu time spent up to now is       43.3 secs

     Computing kpt #:   224  of   240
     total cpu time spent up to now is       43.5 secs

     Computing kpt #:   225  of   240
     total cpu time spent up to now is       43.7 secs

     Computing kpt #:   226  of   240
     total cpu time spent up to now is       43.9 secs

     Computing kpt #:   227  of   240
     total cpu time spent up to now is       44.0 secs

     Computing kpt #:   228  of   240
     total cpu time spent up to now is       44.2 secs

     Computing kpt #:   229  of   240
     total cpu time spent up to now is       44.4 secs

     Computing kpt #:   230  of   240
     total cpu time spent up to now is       44.6 secs

     Computing kpt #:   231  of   240
     total cpu time spent up to now is       44.8 secs

     Computing kpt #:   232  of   240
     total cpu time spent up to now is       45.0 secs

     Computing kpt #:   233  of   240
     total cpu time spent up to now is       45.2 secs

     Computing kpt #:   234  of   240
     total cpu time spent up to now is       45.4 secs

     Computing kpt #:   235  of   240
     total cpu time spent up to now is       45.5 secs

     Computing kpt #:   236  of   240
     total cpu time spent up to now is       45.7 secs

     Computing kpt #:   237  of   240
     total cpu time spent up to now is       45.9 secs

     Computing kpt #:   238  of   240
     total cpu time spent up to now is       46.0 secs

     Computing kpt #:   239  of   240
     total cpu time spent up to now is       46.2 secs

     Computing kpt #:   240  of   240
     total cpu time spent up to now is       46.4 secs

     ethr =  6.25E-13,  avg # of iterations = 25.2

     total cpu time spent up to now is       47.5 secs

     End of band structure calculation

 ------ SPIN UP ------------


          k = 0.0000 0.0000 0.0000 (   321 PWs)   bands (ev):

   -68.9223 -34.7335 -34.7335 -34.7335   9.6735  16.5939  16.5939  16.5939
    18.1622  18.1622  42.3330  42.3330  42.3330  48.0046  48.0046  50.3988
    50.3988  50.3988  51.2144  51.2144

     occupation numbers 
     1.0000   1.0000   1.0000   1.0000   1.0000   1.0000   1.0000   1.0000
     1.0000   1.0000   0.0000   0.0000   0.0000   0.0000   0.0000   0.0000
     0.0000   0.0000   0.0000   0.0000

          k = 0.0000-0.0667 0.0667 (   325 PWs)   bands (ev):

   -68.9188 -34.7522 -34.7397 -34.7335   9.8578  16.5394  16.5868  16.6959
    18.1058  18.1664  41.3460  42.1267  42.2736  47.3197  48.2624  48.3427
    48.9935  50.8141  52.5716  53.3343

     occupation numbers 
     1.0000   1.0000   1.0000   1.0000   1.0000   1.0000   1.0000   1.0000
     1.0000   0.8976   0.0000   0.0000   0.0000   0.0000   0.0000   0.0000
     0.0000   0.0000   0.0000   0.0000

          k = 0.0000-0.1333 0.1333 (   333 PWs)   bands (ev):

   -68.9091 -34.8048 -34.7571 -34.7335  10.3954  16.3876  16.5459  16.9917
    17.9850  18.1807  39.0595  41.3283  42.1288  46.0225  46.8762  46.9506
    50.1454  52.0127  55.1311  55.8659

     occupation numbers 
     1.0000   1.0000   1.0000   1.0000   1.0000   1.0000   1.0000   1.0000
     1.0002   0.3211   0.0000   0.0000   0.0000   0.0000   0.0000   0.0000
     0.0000   0.0000   0.0000   0.0000

          k = 0.0000-0.2000 0.2000 (   342 PWs)   bands (ev):

   -68.8947 -34.8818 -34.7827 -34.7334  11.2319  16.1698  16.4465  17.4490
    17.9079  18.2082  36.2220  40.0186  41.9605  43.8365  45.9390  47.6213
    51.2890  53.8957  58.0701  58.4694

     occupation numbers 
     1.0000   1.0000   1.0000   1.0000   1.0000   1.0000   1.0000   1.0000
     1.0245   0.0173   0.0000   0.0000   0.0000   0.0000   0.0000   0.0000
     0.0000   0.0000   0.0000   0.0000

          k = 0.0000-0.2667 0.2667 (   336 PWs)   bands (ev):

   -68.8781 -34.9695 -34.8120 -34.7334  12.2374  15.9278  16.3795  17.9325
    18.0110  18.2499  33.2370  38.6315  41.8110  41.8677  45.4733  49.0460
    51.9081  56.3665  61.1485  61.2006

     occupation numbers 
     1.0000   1.0000   1.0000   1.0000   1.0000   1.0000   1.0000   1.0000
     0.9390   0.0062   0.0000   0.0000   0.0000   0.0000   0.0000   0.0000
     0.0000   0.0000   0.0000   0.0000

          k = 0.0000-0.3333 0.3333 (   330 PWs)   bands (ev):

   -68.8622 -35.0526 -34.8399 -34.7334  13.1278  15.7038  16.6359  18.0251
    18.3002  18.5933  30.3600  37.4441  40.2168  41.6974  45.3259  50.9843
    52.0222  59.3380  63.7823  63.8944

     occupation numbers 
     1.0000   1.0000   1.0000   1.0000   1.0000   1.0000   1.0000   1.0000
     0.0713  -0.0039   0.0000   0.0000   0.0000   0.0000   0.0000   0.0000
     0.0000   0.0000   0.0000   0.0000

          k = 0.0000-0.4000 0.4000 (   324 PWs)   bands (ev):

   -68.8498 -35.1171 -34.8617 -34.7334  13.5869  15.5336  17.4445  18.1356
    18.3470  19.0860  27.8462  36.5918  39.0055  41.6228  45.3530  51.8588
    53.2957  61.9664  62.6887  64.4199

     occupation numbers 
     1.0000   1.0000   1.0000   1.0000   1.0000   1.0000   1.0000   0.9780
     0.0000   0.0000   0.0000   0.0000   0.0000   0.0000   0.0000   0.0000
     0.0000   0.0000   0.0000   0.0000

          k = 0.0000-0.4667 0.4667 (   328 PWs)   bands (ev):

   -68.8430 -35.1522 -34.8736 -34.7334  13.7078  15.4420  18.1064  18.3756
    18.4430  19.3726  26.1774  36.1481  38.3578  41.5861  45.4162  51.6851
    55.7995  59.1031  64.4555  65.9464

     occupation numbers 
     1.0000   1.0000   1.0000   1.0000   1.0000   1.0000   1.0000   0.0971
     0.0000   0.0000   0.0000   0.0000   0.0000   0.0000   0.0000   0.0000
     0.0000   0.0000   0.0000   0.0000

          k =-0.0667-0.0667 0.1333 (   335 PWs)   bands (ev):

   -68.9122 -34.7886 -34.7461 -34.7381  10.2191  16.4679  16.5174  16.9096
    18.0076  18.1841  40.0138  40.9627  42.5922  45.9376  46.7967  48.4846
    49.9690  50.7899  54.6154  54.8787

     occupation numbers 
     1.0000   1.0000   1.0000   1.0000   1.0000   1.0000   1.0000   1.0000
     1.0001   0.3731   0.0000   0.0000   0.0000   0.0000   0.0000   0.0000
     0.0000   0.0000   0.0000   0.0000

          k =-0.0667-0.1333 0.2000 (   337 PWs)   bands (ev):

   -68.9001 -34.8523 -34.7668 -34.7400  10.9098  16.2877  16.4250  17.3042
    17.8904  18.2219  37.6702  39.5901  42.6044  43.8167  46.8384  47.8095
    51.4229  52.0859  56.5379  57.2740

     occupation numbers 
     1.0000   1.0000   1.0000   1.0000   1.0000   1.0000   1.0000   1.0000
     1.0125   0.0299   0.0000   0.0000   0.0000   0.0000   0.0000   0.0000
     0.0000   0.0000   0.0000   0.0000

          k =-0.0667-0.2000 0.2667 (   335 PWs)   bands (ev):

   -68.8847 -34.9321 -34.7963 -34.7404  11.8467  16.0526  16.3065  17.8242
    17.8711  18.2720  34.7928  38.2994  41.6104  42.7904  46.9276  47.8114
    52.5763  54.2988  58.6144  60.1856

     occupation numbers 
     1.0000   1.0000   1.0000   1.0000   1.0000   1.0000   1.0000   1.0000
     1.0552  -0.0119   0.0000   0.0000   0.0000   0.0000   0.0000   0.0000
     0.0000   0.0000   0.0000   0.0000

          k =-0.0667-0.2667 0.3333 (   332 PWs)   bands (ev):

   -68.8685 -35.0146 -34.8276 -34.7406  12.8357  15.8166  16.3184  17.9246
    18.3161  18.4692  31.8455  37.1398  40.0597  42.5453  46.5052  49.0904
    53.2408  57.0741  60.9761  63.1589

     occupation numbers 
     1.0000   1.0000   1.0000   1.0000   1.0000   1.0000   1.0000   1.0000
     0.1268  -0.0054   0.0000   0.0000   0.0000   0.0000   0.0000   0.0000
     0.0000   0.0000   0.0000   0.0000

          k =-0.0667-0.3333 0.4000 (   332 PWs)   bands (ev):

   -68.8543 -35.0858 -34.8549 -34.7407  13.5247  15.6200  16.7513  18.0424
    18.3969  19.0937  29.1022  36.2160  38.7801  42.3932  46.3430  50.3328
    53.9386  60.2806  62.0291  64.4033

     occupation numbers 
     1.0000   1.0000   1.0000   1.0000   1.0000   1.0000   1.0000   1.0075
     0.0034   0.0000   0.0000   0.0000   0.0000   0.0000   0.0000   0.0000
     0.0000   0.0000   0.0000   0.0000

          k =-0.0667-0.4000 0.4667 (   328 PWs)   bands (ev):

   -68.8447 -35.1338 -34.8734 -34.7408  13.7713  15.4910  17.4585  18.1201
    18.5550  19.6843  26.8956  35.6195  37.9362  42.3036  46.3426  50.9183
    55.4217  60.0855  63.7752  64.8688

     occupation numbers 
     1.0000   1.0000   1.0000   1.0000   1.0000   1.0000   1.0000   0.9786
     0.0000   0.0000   0.0000   0.0000   0.0000   0.0000   0.0000   0.0000
     0.0000   0.0000   0.0000   0.0000

          k =-0.0667 0.5333-0.4667 (   330 PWs)   bands (ev):

   -68.8413 -35.1507 -34.8800 -34.7408  13.8124  15.4461  17.7685  18.1193
    18.7005  20.0144  25.9400  35.4130  37.6402  42.2739  46.3646  51.0172
    57.4164  57.8560  64.8416  66.4568

     occupation numbers 
     1.0000   1.0000   1.0000   1.0000   1.0000   1.0000   1.0000   0.9705
     0.0000   0.0000   0.0000   0.0000   0.0000   0.0000   0.0000   0.0000
     0.0000   0.0000   0.0000   0.0000

          k =-0.1333-0.1333 0.2667 (   339 PWs)   bands (ev):

   -68.8870 -34.9177 -34.7845 -34.7503  11.7116  16.1611  16.2026  17.8035
    17.8071  18.2993  36.0460  37.1934  41.7487  43.0536  46.8385  49.0346
    52.3184  53.3547  57.3175  59.9438

     occupation numbers 
     1.0000   1.0000   1.0000   1.0000   1.0000   1.0000   1.0000   1.0000
     1.0633  -0.0037   0.0000   0.0000   0.0000   0.0000   0.0000   0.0000
     0.0000   0.0000   0.0000   0.0000

          k =-0.1333-0.2000 0.3333 (   330 PWs)   bands (ev):

   -68.8718 -34.9883 -34.8159 -34.7550  12.6813  15.9265  16.0748  17.8112
    18.3169  18.5134  33.4933  35.5929  40.1225  43.1754  47.2880  49.4136
    53.8934  55.1096  58.6531  62.7645

     occupation numbers 
     1.0000   1.0000   1.0000   1.0000   1.0000   1.0000   1.0000   1.0000
     0.2196  -0.0007   0.0000   0.0000   0.0000   0.0000   0.0000   0.0000
     0.0000   0.0000   0.0000   0.0000

          k =-0.1333-0.2667 0.4000 (   329 PWs)   bands (ev):

   -68.8574 -35.0533 -34.8505 -34.7569  13.5497  15.7069  16.1592  17.9114
    18.4147  19.2480  30.6482  34.5451  38.8139  43.1769  47.9124  49.5273
    55.2800  57.3546  60.2233  64.0673

     occupation numbers 
     1.0000   1.0000   1.0000   1.0000   1.0000   1.0000   1.0000   1.0088
     0.0193   0.0000   0.0000   0.0000   0.0000   0.0000   0.0000   0.0000
     0.0000   0.0000   0.0000   0.0000

          k =-0.1333-0.3333 0.4667 (   328 PWs)   bands (ev):

   -68.8460 -35.1027 -34.8790 -34.7578  13.9821  15.5617  16.5833  18.0354
    18.5134  20.1172  28.0726  33.8075  37.8756  43.1553  48.4164  49.6975
    56.0562  60.1505  60.6322  65.0267

     occupation numbers 
     1.0000   1.0000   1.0000   1.0000   1.0000   1.0000   1.0000   1.0260
    -0.0037   0.0000   0.0000   0.0000   0.0000   0.0000   0.0000   0.0000
     0.0000   0.0000   0.0000   0.0000

          k =-0.1333 0.6000-0.4667 (   326 PWs)   bands (ev):

   -68.8398 -35.1294 -34.8950 -34.7582  14.0760  15.4884  16.9854  18.0915
    18.6440  20.9513  26.2643  33.4151  37.3818  43.1415  48.7459  49.7380
    56.8277  59.3723  64.1431  65.6560

     occupation numbers 
     1.0000   1.0000   1.0000   1.0000   1.0000   1.0000   1.0000   1.0283
     0.0000   0.0000   0.0000   0.0000   0.0000   0.0000   0.0000   0.0000
     0.0000   0.0000   0.0000   0.0000

          k =-0.2000-0.2000 0.4000 (   333 PWs)   bands (ev):

   -68.8584 -35.0387 -34.8486 -34.7661  13.5780  15.7183  15.9636  17.8455
    18.4179  19.3169  32.1192  32.9270  38.9162  43.5570  47.3356  51.5947
    54.0729  57.5692  58.5658  63.9622

     occupation numbers 
     1.0000   1.0000   1.0000   1.0000   1.0000   1.0000   1.0000   1.0159
     0.0280   0.0000   0.0000   0.0000   0.0000   0.0000   0.0000   0.0000
     0.0000   0.0000   0.0000   0.0000

          k =-0.2000-0.2667 0.4667 (   328 PWs)   bands (ev):

   -68.8467 -35.0761 -34.8873 -34.7716  14.2356  15.5548  16.0514  17.9548
    18.4779  20.3543  29.6383  31.7339  38.0167  43.8172  47.6726  52.2748
    55.6519  58.2081  59.9680  64.5192

     occupation numbers 
     1.0000   1.0000   1.0000   1.0000   1.0000   1.0000   1.0000   1.0476
    -0.0016   0.0000   0.0000   0.0000   0.0000   0.0000   0.0000   0.0000
     0.0000   0.0000   0.0000   0.0000

          k =-0.2000 0.6667-0.4667 (   327 PWs)   bands (ev):

   -68.8388 -35.0977 -34.9185 -34.7742  14.4519  15.5065  16.3006  18.0713
    18.5438  21.5766  27.2578  31.1431  37.4498  43.9649  48.1360  52.0460
    56.2975  59.8527  61.6988  65.8912

     occupation numbers 
     1.0000   1.0000   1.0000   1.0000   1.0000   1.0000   1.0000   1.0049
     0.0000   0.0000   0.0000   0.0000   0.0000   0.0000   0.0000   0.0000
     0.0000   0.0000   0.0000   0.0000

          k =-0.2000 0.6000-0.4000 (   322 PWs)   bands (ev):

   -68.8360 -35.1045 -34.9304 -34.7749  14.4726  15.4977  16.4323  18.1141
    18.5867  22.3717  26.0508  30.9409  37.2553  44.0128  48.3769  51.8586
    56.1925  61.1975  63.8501  64.6604

     occupation numbers 
     1.0000   1.0000   1.0000   1.0000   1.0000   1.0000   1.0000   0.9866
     0.0000   0.0000   0.0000   0.0000   0.0000   0.0000   0.0000   0.0000
     0.0000   0.0000   0.0000   0.0000

          k =-0.2667 0.7333-0.4667 (   328 PWs)   bands (ev):

   -68.8384 -35.0797 -34.9333 -34.7802  14.7129  15.4404  16.0116  18.0661
    18.4956  21.7780  28.5013  29.4624  37.4996  44.4682  47.3674  54.8451
    55.4853  57.8402  62.2406  65.5351

     occupation numbers 
     1.0000   1.0000   1.0000   1.0000   1.0000   1.0000   1.0000   0.9718
     0.0000   0.0000   0.0000   0.0000   0.0000   0.0000   0.0000   0.0000
     0.0000   0.0000   0.0000   0.0000

          k =-0.2667 0.6667-0.4000 (   324 PWs)   bands (ev):

   -68.8339 -35.0704 -34.9708 -34.7838  14.8681  15.4844  15.9726  18.1852
    18.4802  23.3497  26.5419  28.8044  37.2390  44.9468  47.1652  54.2753
    56.6536  59.9247  63.5025  64.5790

     occupation numbers 
     1.0000   1.0000   1.0000   1.0000   1.0000   1.0000   1.0000   0.6422
     0.0000   0.0000   0.0000   0.0000   0.0000   0.0000   0.0000   0.0000
     0.0000   0.0000   0.0000   0.0000

          k =-0.3333 0.6667-0.3333 (   321 PWs)   bands (ev):

   -68.8321 -35.0252 -35.0252 -34.7867  15.0555  15.6436  15.6436  18.3440
[...]

   -68.8454 -35.0691 -34.8652 -34.8193  14.8807  15.4018  15.5270  18.2713
    18.3557  21.4548  29.9845  30.6586  32.7673  48.7323  52.0625  53.1933
    55.4694  57.9542  58.8047  64.1583

     occupation numbers 
     1.0000   1.0000   1.0000   1.0000   1.0000   1.0000   1.0000   0.0895
    -0.0002   0.0000   0.0000   0.0000   0.0000   0.0000   0.0000   0.0000
     0.0000   0.0000   0.0000   0.0000

          k = 0.5333-0.5333 0.2667 (   330 PWs)   bands (ev):

   -68.8398 -35.0841 -34.9072 -34.8006  14.6150  15.3123  16.4011  18.2824
    18.3978  22.5694  26.4971  31.7906  32.8153  47.4659  52.1406  53.2556
    55.8801  60.2606  62.7954  63.0137

     occupation numbers 
     1.0000   1.0000   1.0000   1.0000   1.0000   1.0000   1.0000   0.0251
     0.0000   0.0000   0.0000   0.0000   0.0000   0.0000   0.0000   0.0000
     0.0000   0.0000   0.0000   0.0000

          k = 0.5333-0.6000 0.3333 (   333 PWs)   bands (ev):

   -68.8398 -35.0576 -34.9095 -34.8273  14.9799  15.3450  15.8602  18.3177
    18.3986  22.9009  27.7636  29.9006  32.1852  49.3559  52.5541  54.5809
    55.8404  60.0624  61.2783  62.1064

     occupation numbers 
     1.0000   1.0000   1.0000   1.0000   1.0000   1.0000   1.0000  -0.0101
     0.0000   0.0000   0.0000   0.0000   0.0000   0.0000   0.0000   0.0000
     0.0000   0.0000   0.0000   0.0000

          k = 0.4667-0.5333 0.3333 (   326 PWs)   bands (ev):

   -68.8379 -35.0466 -34.9328 -34.8294  14.9558  15.3248  16.0470  18.3389
    18.4099  23.9965  26.3157  29.7101  32.0020  49.4739  52.8666  54.5486
    57.4286  59.1928  63.1437  63.5028

     occupation numbers 
     1.0000   1.0000   1.0000   1.0000   1.0000   1.0000   1.0000  -0.0458
     0.0000   0.0000   0.0000   0.0000   0.0000   0.0000   0.0000   0.0000
     0.0000   0.0000   0.0000   0.0000

          k = 0.4667-0.6000 0.4000 (   324 PWs)   bands (ev):

   -68.8372 -35.0178 -34.9564 -34.8406  15.0825  15.4937  15.7469  18.3677
    18.4045  24.6703  26.7678  28.1931  31.8446  50.7285  52.0053  56.5179
    57.4125  59.9934  60.9187  62.7788

     occupation numbers 
     1.0000   1.0000   1.0000   1.0000   1.0000   1.0000   1.0000  -0.0139
     0.0000   0.0000   0.0000   0.0000   0.0000   0.0000   0.0000   0.0000
     0.0000   0.0000   0.0000   0.0000

          k = 0.0000 0.0000 0.4000 (   329 PWs)   bands (ev):

   -68.8696 -34.8999 -34.8344 -34.8344  12.5802  16.6917  16.7601  16.7601
    17.4376  18.7402  36.5865  37.5485  37.5485  39.4160  49.5669  49.5669
    51.1945  56.4887  60.2613  61.3029

     occupation numbers 
     1.0000   1.0000   1.0000   1.0000   1.0000   1.0000   1.0000   1.0000
     1.0742   0.0000   0.0000   0.0000   0.0000   0.0000   0.0000   0.0000
     0.0000   0.0000   0.0000   0.0000

          k = 0.0000-0.0667 0.4667 (   329 PWs)   bands (ev):

   -68.8545 -34.9580 -34.8652 -34.8467  13.3892  16.1749  16.7470  17.0505
    17.8627  19.0333  34.3240  36.1078  36.7599  39.3094  49.3196  50.4312
    53.2644  55.6130  59.5476  63.6540

     occupation numbers 
     1.0000   1.0000   1.0000   1.0000   1.0000   1.0000   1.0000   1.0000
     0.9788   0.0000   0.0000   0.0000   0.0000   0.0000   0.0000   0.0000
     0.0000   0.0000   0.0000   0.0000

          k = 0.0000-0.1333 0.5333 (   328 PWs)   bands (ev):

   -68.8401 -35.0264 -34.8945 -34.8451  14.0769  15.7660  16.6235  17.3678
    18.4397  19.6439  31.3817  34.8619  36.2084  40.2586  48.5705  50.3537
    53.5837  56.3782  61.7620  65.3204

     occupation numbers 
     1.0000   1.0000   1.0000   1.0000   1.0000   1.0000   1.0000   1.0000
     0.0361   0.0000   0.0000   0.0000   0.0000   0.0000   0.0000   0.0000
     0.0000   0.0000   0.0000   0.0000

          k = 0.0000-0.2000 0.6000 (   325 PWs)   bands (ev):

   -68.8289 -35.0815 -34.9174 -34.8419  14.4306  15.6024  16.5097  17.5310
    18.9595  20.7900  28.6450  33.9138  35.7736  41.5553  48.0392  49.1209
    52.4850  59.8002  65.0355  66.8395

     occupation numbers 
     1.0000   1.0000   1.0000   1.0000   1.0000   1.0000   1.0000   1.0000
     0.0000   0.0000   0.0000   0.0000   0.0000   0.0000   0.0000   0.0000
     0.0000   0.0000   0.0000   0.0000

          k = 0.0000-0.2667 0.6667 (   326 PWs)   bands (ev):

   -68.8227 -35.1118 -34.9299 -34.8399  14.4901  15.6354  16.4453  17.5611
    19.2701  22.1529  26.5246  33.3916  35.5420  42.7326  47.6634  47.7706
    52.2049  63.3176  67.5984  67.9248

     occupation numbers 
     1.0000   1.0000   1.0000   1.0000   1.0000   1.0000   1.0000   1.0167
     0.0000   0.0000   0.0000   0.0000   0.0000   0.0000   0.0000   0.0000
     0.0000   0.0000   0.0000   0.0000

          k =-0.0667-0.0667 0.5333 (   331 PWs)   bands (ev):

   -68.8403 -35.0020 -34.8997 -34.8625  14.0443  15.7530  16.8513  17.2391
    18.2392  19.6046  33.0209  33.5002  37.0783  38.7530  49.0690  52.7028
    52.7431  54.5430  60.8410  66.2464

     occupation numbers 
     1.0000   1.0000   1.0000   1.0000   1.0000   1.0000   1.0000   1.0000
     0.1760   0.0000   0.0000   0.0000   0.0000   0.0000   0.0000   0.0000
     0.0000   0.0000   0.0000   0.0000

          k =-0.0667-0.1333 0.6000 (   327 PWs)   bands (ev):

   -68.8278 -35.0508 -34.9315 -34.8635  14.5002  15.4003  16.7627  17.5315
    18.6724  20.6855  30.3353  32.3253  36.9135  39.5019  48.1882  50.5167
    53.6432  56.9794  63.6247  68.1617

     occupation numbers 
     1.0000   1.0000   1.0000   1.0000   1.0000   1.0000   1.0000   1.0016
    -0.0148   0.0000   0.0000   0.0000   0.0000   0.0000   0.0000   0.0000
     0.0000   0.0000   0.0000   0.0000

          k =-0.0667-0.2000 0.6667 (   329 PWs)   bands (ev):

   -68.8193 -35.0864 -34.9528 -34.8617  14.6560  15.2914  16.6444  17.6898
    19.0369  22.2245  27.7509  31.6497  36.5930  40.7844  46.7971  49.3302
    53.6912  60.4410  66.9408  68.6033

     occupation numbers 
     1.0000   1.0000   1.0000   1.0000   1.0000   1.0000   1.0000   1.0179
     0.0000   0.0000   0.0000   0.0000   0.0000   0.0000   0.0000   0.0000
     0.0000   0.0000   0.0000   0.0000

          k =-0.0667 0.7333-0.2667 (   324 PWs)   bands (ev):

   -68.8163 -35.0992 -34.9603 -34.8608  14.6504  15.3149  16.5914  17.7285
    19.1854  23.3689  26.2667  31.4071  36.4707  41.5392  45.9000  49.0480
    53.6768  63.2675  65.5900  69.6298

     occupation numbers 
     1.0000   1.0000   1.0000   1.0000   1.0000   1.0000   1.0000   1.0176
     0.0000   0.0000   0.0000   0.0000   0.0000   0.0000   0.0000   0.0000
     0.0000   0.0000   0.0000   0.0000

          k =-0.1333-0.1333 0.6667 (   324 PWs)   bands (ev):

   -68.8181 -35.0679 -34.9729 -34.8669  14.7921  15.0966  16.6623  17.8960
    18.8241  22.2344  29.2546  29.8550  37.8564  39.3491  46.5000  49.5850
    56.7518  57.0788  66.4825  68.8493

     occupation numbers 
     1.0000   1.0000   1.0000   1.0000   1.0000   1.0000   1.0044   1.0255
    -0.0058   0.0000   0.0000   0.0000   0.0000   0.0000   0.0000   0.0000
     0.0000   0.0000   0.0000   0.0000

          k =-0.1333 0.8000-0.2667 (   325 PWs)   bands (ev):

   -68.8128 -35.0743 -35.0005 -34.8668  14.8395  15.0525  16.5312  18.1494
    18.9151  24.0479  27.0582  29.1965  38.0264  40.1336  44.8749  49.2298
    56.8558  60.4978  64.8050  70.1422

     occupation numbers 
     1.0000   1.0000   1.0000   1.0000   1.0000   1.0000   1.0073   0.8308
     0.0000   0.0000   0.0000   0.0000   0.0000   0.0000   0.0000   0.0000
     0.0000   0.0000   0.0000   0.0000

          k =-0.2000 0.8000-0.2000 (   324 PWs)   bands (ev):

   -68.8105 -35.0442 -35.0442 -34.8674  14.9420  14.9420  16.4512  18.6071
    18.6071  25.9805  25.9805  27.8806  39.3234  39.3234  43.9854  49.1596
    59.4337  61.2848  61.2848  72.3982

     occupation numbers 
     1.0000   1.0000   1.0000   1.0000   1.0000   1.0000   1.0088  -0.1039
     0.0000   0.0000   0.0000   0.0000   0.0000   0.0000   0.0000   0.0000
     0.0000   0.0000   0.0000   0.0000

          k = 0.6000-0.6000 0.4000 (   333 PWs)   bands (ev):

   -68.8404 -35.0491 -34.8716 -34.8716  15.3390  15.3390  15.4460  18.3693
    18.3693  22.9165  29.3467  29.3467  30.6375  51.2239  53.6432  53.6432
    56.1096  59.4496  59.4496  64.0019

     occupation numbers 
     1.0000   1.0000   1.0000   1.0000   1.0000   1.0000   1.0000  -0.0370
    -0.0001   0.0000   0.0000   0.0000   0.0000   0.0000   0.0000   0.0000
     0.0000   0.0000   0.0000   0.0000

          k = 0.5333-0.5333 0.4000 (   328 PWs)   bands (ev):

   -68.8377 -35.0153 -34.9231 -34.8751  15.2741  15.3146  15.7227  18.3878
    18.4111  24.5973  27.2294  29.0231  30.0504  52.1942  54.7036  55.5149
    55.9537  59.1169  60.5556  63.4470

     occupation numbers 
     1.0000   1.0000   1.0000   1.0000   1.0000   1.0000   1.0000  -0.0001
     0.0000   0.0000   0.0000   0.0000   0.0000   0.0000   0.0000   0.0000
     0.0000   0.0000   0.0000   0.0000

          k = 0.4667-0.5333 0.4667 (   330 PWs)   bands (ev):

   -68.8369 -34.9620 -34.9620 -34.8963  15.2931  15.5312  15.5312  18.4142
    18.4142  26.4045  26.4045  27.8412  29.6271  54.2722  54.2722  56.9275
    57.6291  57.6291  58.1076  63.7614

     occupation numbers 
     1.0000   1.0000   1.0000   1.0000   1.0000   1.0000   1.0000   0.0000
     0.0000   0.0000   0.0000   0.0000   0.0000   0.0000   0.0000   0.0000
     0.0000   0.0000   0.0000   0.0000

          k = 0.0000 0.0000 0.5333 (   325 PWs)   bands (ev):

   -68.8404 -34.9681 -34.8969 -34.8969  13.9736  15.8254  17.1232  17.1232
    17.9585  19.5278  34.5415  34.5415  35.3882  37.5494  51.9779  52.4837
    52.4837  52.6914  59.4806  67.9781

     occupation numbers 
     1.0000   1.0000   1.0000   1.0000   1.0000   1.0000   1.0000   1.0000
     0.8154   0.0000   0.0000   0.0000   0.0000   0.0000   0.0000   0.0000
     0.0000   0.0000   0.0000   0.0000

          k = 0.0000-0.0667 0.6000 (   327 PWs)   bands (ev):

   -68.8269 -35.0130 -34.9271 -34.9091  14.3951  15.3986  17.2161  17.4099
    18.3839  20.3990  32.0026  33.2031  35.4834  37.6598  49.7867  51.2922
    53.7031  55.5219  61.0626  69.7565

     occupation numbers 
     1.0000   1.0000   1.0000   1.0000   1.0000   1.0000   1.0000   1.0000
     0.0082   0.0000   0.0000   0.0000   0.0000   0.0000   0.0000   0.0000
     0.0000   0.0000   0.0000   0.0000

          k = 0.0000-0.1333 0.6667 (   325 PWs)   bands (ev):

   -68.8163 -35.0603 -34.9506 -34.9061  14.6012  15.0972  17.1770  17.6141
    18.8884  21.8038  29.2554  32.1892  35.3685  38.7551  47.2274  50.7168
    54.0685  58.9204  64.0269  70.6101

     occupation numbers 
     1.0000   1.0000   1.0000   1.0000   1.0000   1.0000   1.0000   1.0173
     0.0000   0.0000   0.0000   0.0000   0.0000   0.0000   0.0000   0.0000
     0.0000   0.0000   0.0000   0.0000

          k = 0.0000-0.2000 0.7333 (   328 PWs)   bands (ev):

   -68.8105 -35.0875 -34.9634 -34.9030  14.6151  15.0113  17.1403  17.6900
    19.2093  23.4925  26.9142  31.6300  35.2518  39.8864  45.4322  50.4240
    54.1265  62.2577  67.3866  67.4959

     occupation numbers 
     1.0000   1.0000   1.0000   1.0000   1.0000   1.0000   1.0000   1.0132
     0.0000   0.0000   0.0000   0.0000   0.0000   0.0000   0.0000   0.0000
     0.0000   0.0000   0.0000   0.0000

          k =-0.0667-0.0667 0.6667 (   327 PWs)   bands (ev):

   -68.8152 -35.0397 -34.9619 -34.9211  14.5769  15.0351  17.3153  17.7702
    18.6904  21.6630  30.8198  31.0868  35.7756  37.4738  47.0835  51.4185
    56.1864  56.5030  62.9817  71.3256

     occupation numbers 
     1.0000   1.0000   1.0000   1.0000   1.0000   1.0000   1.0037   1.0179
    -0.0056   0.0000   0.0000   0.0000   0.0000   0.0000   0.0000   0.0000
     0.0000   0.0000   0.0000   0.0000

          k =-0.0667-0.1333 0.7333 (   329 PWs)   bands (ev):

   -68.8073 -35.0649 -34.9873 -34.9201  14.6304  14.8089  17.2757  18.0505
    18.9991  23.3815  28.3749  30.2357  35.9549  38.2342  44.8442  51.1494
    56.5040  59.7114  65.8862  68.4052

     occupation numbers 
     1.0000   1.0000   1.0000   1.0000   1.0000   1.0000   1.0200   0.8877
     0.0000   0.0000   0.0000   0.0000   0.0000   0.0000   0.0000   0.0000
     0.0000   0.0000   0.0000   0.0000

          k =-0.0667 0.8000-0.2000 (   329 PWs)   bands (ev):

   -68.8045 -35.0748 -34.9960 -34.9190  14.6019  14.7715  17.2527  18.1355
    19.1353  24.8506  26.6240  29.9632  35.9412  38.8544  43.8185  51.0403
    56.5011  62.3064  65.0931  69.3194

     occupation numbers 
     1.0000   1.0000   1.0000   1.0000   1.0000   1.0000   1.0187   0.7498
     0.0000   0.0000   0.0000   0.0000   0.0000   0.0000   0.0000   0.0000
     0.0000   0.0000   0.0000   0.0000

          k =-0.1333 0.8667-0.2000 (   332 PWs)   bands (ev):

   -68.8023 -35.0570 -35.0248 -34.9207  14.6409  14.6416  17.2317  18.5362
    18.9304  25.2991  27.4668  28.3234  36.9656  37.8966  43.2139  51.0985
    59.1482  60.5376  64.1078  69.7460

     occupation numbers 
     1.0000   1.0000   1.0000   1.0000   1.0000   1.0000   1.0129  -0.0086
     0.0000   0.0000   0.0000   0.0000   0.0000   0.0000   0.0000   0.0000
     0.0000   0.0000   0.0000   0.0000

          k = 0.0000 0.0000 0.6667 (   334 PWs)   bands (ev):

   -68.8142 -35.0118 -34.9581 -34.9581  14.4975  15.0172  17.7232  17.7232
    18.4678  21.4658  31.7783  31.7783  34.6504  36.5479  47.0037  53.1201
    55.9917  55.9917  61.2875  73.0230

     occupation numbers 
     1.0000   1.0000   1.0000   1.0000   1.0000   1.0000   1.0000   1.0410
     0.0000   0.0000   0.0000   0.0000   0.0000   0.0000   0.0000   0.0000
     0.0000   0.0000   0.0000   0.0000

          k = 0.0000-0.0667 0.7333 (   330 PWs)   bands (ev):

   -68.8042 -35.0407 -34.9822 -34.9662  14.4923  14.7017  17.8927  18.0233
    18.8341  22.9753  29.7912  30.6903  34.7889  36.7087  44.4992  53.1430
    57.1034  58.6923  63.3263  70.6285

     occupation numbers 
     1.0000   1.0000   1.0000   1.0000   1.0000   1.0000   0.9950   0.8203
     0.0000   0.0000   0.0000   0.0000   0.0000   0.0000   0.0000   0.0000
     0.0000   0.0000   0.0000   0.0000

          k = 0.0000-0.1333 0.8000 (   334 PWs)   bands (ev):

   -68.7988 -35.0642 -34.9954 -34.9630  14.4558  14.5437  17.9062  18.1737
    19.1516  24.8220  27.4943  30.0842  34.9099  37.4386  42.7687  52.9515
    57.3040  61.7273  66.4422  67.2570

     occupation numbers 
     1.0000   1.0000   1.0000   1.0000   1.0000   1.0000   0.9500   0.5625
     0.0000   0.0000   0.0000   0.0000   0.0000   0.0000   0.0000   0.0000
     0.0000   0.0000   0.0000   0.0000

          k =-0.0667-0.0667 0.8000 (   333 PWs)   bands (ev):

   -68.7968 -35.0496 -35.0115 -34.9729  14.4048  14.4620  18.0021  18.4816
    19.0110  24.6702  28.8438  29.1043  35.0890  36.5024  42.4104  53.4915
    59.2615  60.0495  65.2424  68.0906

     occupation numbers 
     1.0000   1.0000   1.0000   1.0000   1.0000   1.0000   0.8956   0.0611
     0.0000   0.0000   0.0000   0.0000   0.0000   0.0000   0.0000   0.0000
     0.0000   0.0000   0.0000   0.0000

          k =-0.0667 0.8667-0.1333 (   336 PWs)   bands (ev):

   -68.7941 -35.0535 -35.0244 -34.9720  14.3644  14.3829  18.0091  18.6760
    19.0860  26.3224  27.1609  28.7099  35.3920  36.5558  41.5092  53.4872
    59.5750  62.2735  64.5682  68.7424

     occupation numbers 
     1.0000   1.0000   1.0000   1.0000   1.0000   1.0000   0.8567  -0.0703
     0.0000   0.0000   0.0000   0.0000   0.0000   0.0000   0.0000   0.0000
     0.0000   0.0000   0.0000   0.0000

          k = 0.0000 0.0000 0.8000 (   338 PWs)   bands (ev):

   -68.7948 -35.0315 -35.0068 -35.0068  14.3183  14.4024  18.4614  18.4614
    18.8733  24.4225  29.5293  29.5293  34.2409  35.8515  42.1355  54.5492
    59.8797  59.8797  63.5204  69.6993

     occupation numbers 
     1.0000   1.0000   1.0000   1.0000   1.0000   1.0000   0.3608   0.0569
     0.0000   0.0000   0.0000   0.0000   0.0000   0.0000   0.0000   0.0000
     0.0000   0.0000   0.0000   0.0000

          k = 0.0000-0.0667 0.8667 (   336 PWs)   bands (ev):

   -68.7897 -35.0460 -35.0203 -35.0095  14.2160  14.2336  18.6091  18.7112
    19.1075  26.1415  28.0918  28.8727  34.4312  35.5832  40.6223  54.8924
    60.8470  62.2233  65.6633  67.1659

     occupation numbers 
     1.0000   1.0000   1.0000   1.0000   1.0000   1.0000   0.1156  -0.0626
     0.0000   0.0000   0.0000   0.0000   0.0000   0.0000   0.0000   0.0000
     0.0000   0.0000   0.0000   0.0000

          k =-0.0667 0.9333-0.0667 (   334 PWs)   bands (ev):

   -68.7871 -35.0390 -35.0390 -35.0124  14.1501  14.1501  18.6813  19.0511
    19.0511  27.5974  27.5974  27.9905  34.7998  34.7998  39.9565  55.2338
    62.0447  64.1651  64.1651  68.4325

     occupation numbers 
     1.0000   1.0000   1.0000   1.0000   1.0000   1.0000   0.0574  -0.0113
     0.0000   0.0000   0.0000   0.0000   0.0000   0.0000   0.0000   0.0000
     0.0000   0.0000   0.0000   0.0000

          k = 0.0000 0.0000 0.9333 (   338 PWs)   bands (ev):

   -68.7847 -35.0370 -35.0339 -35.0339  14.0685  14.0725  19.0386  19.0386
    19.0979  27.3830  28.1783  28.1783  34.0612  34.4849  39.4341  55.7898
    64.0137  64.0137  65.5166  66.8786

     occupation numbers 
     1.0000   1.0000   1.0000   1.0000   1.0000   1.0000  -0.0520   0.0000
     0.0000   0.0000   0.0000   0.0000   0.0000   0.0000   0.0000   0.0000
     0.0000   0.0000   0.0000   0.0000

     the Fermi energy is    18.1897 ev
     (compare with:    18.1906 eV, computed in scf)

     Writing all to output data dir ./fe_nfm.save/

     init_run     :      0.53s CPU      0.59s WALL (       1 calls)
     electrons    :     43.78s CPU     44.96s WALL (       1 calls)

     Called by init_run:
     wfcinit      :      0.00s CPU      0.00s WALL (       1 calls)
     wfcinit:atom :      0.03s CPU      0.04s WALL (     240 calls)
     wfcinit:wfcr :      1.88s CPU      1.98s WALL (     240 calls)
     potinit      :      0.06s CPU      0.08s WALL (       1 calls)
     hinit0       :      0.41s CPU      0.41s WALL (       1 calls)

     Called by electrons:
     c_bands      :     42.66s CPU     43.83s WALL (       1 calls)
     v_of_rho     :      0.05s CPU      0.07s WALL (       1 calls)
     v_h          :      0.00s CPU      0.00s WALL (       1 calls)
     v_xc         :      0.05s CPU      0.07s WALL (       1 calls)
     newd         :      0.04s CPU      0.06s WALL (       1 calls)

     Called by c_bands:
     init_us_2    :      0.04s CPU      0.04s WALL (     240 calls)
     init_us_2:cp :      0.04s CPU      0.04s WALL (     240 calls)
     cegterg      :     40.53s CPU     41.53s WALL (     442 calls)

     Called by sum_band:

     Called by *egterg:
     cdiaghg      :      4.99s CPU      5.10s WALL (    6286 calls)
     cegterg:over :      3.29s CPU      3.39s WALL (    6046 calls)
     cegterg:upda :      1.59s CPU      1.63s WALL (    6046 calls)
     cegterg:last :      4.37s CPU      4.45s WALL (    3301 calls)
     h_psi        :     26.36s CPU     27.13s WALL (    6728 calls)
     s_psi        :      0.85s CPU      0.88s WALL (    6728 calls)
     g_psi        :      0.13s CPU      0.13s WALL (    6046 calls)

     Called by h_psi:
     h_psi:calbec :      1.00s CPU      1.03s WALL (    6728 calls)
     vloc_psi     :     24.36s CPU     25.07s WALL (    6728 calls)
     add_vuspsi   :      0.86s CPU      0.88s WALL (    6728 calls)

     General routines
     calbec       :      0.97s CPU      1.00s WALL (    6728 calls)
     fft          :      0.01s CPU      0.02s WALL (      23 calls)
     ffts         :      0.00s CPU      0.00s WALL (       2 calls)
     fftw         :     22.50s CPU     23.20s WALL (  145898 calls)
     interpolate  :      0.00s CPU      0.00s WALL (       2 calls)
     davcio       :      0.04s CPU      0.07s WALL (     480 calls)

     Parallel routines

     PWSCF        :     46.34s CPU     47.73s WALL


   This run was terminated on:  14:55:35   4Feb2022            

=------------------------------------------------------------------------------=
   JOB DONE.
=------------------------------------------------------------------------------=
