
     Program PWSCF v.7.0 starts on  4Feb2022 at 14:46:49 

     This program is part of the open-source Quantum ESPRESSO suite
     for quantum simulation of materials; please cite
         "P. Giannozzi et al., J. Phys.:Condens. Matter 21 395502 (2009);
         "P. Giannozzi et al., J. Phys.:Condens. Matter 29 465901 (2017);
         "P. Giannozzi et al., J. Chem. Phys. 152 154105 (2020);
          URL http://www.quantum-espresso.org", 
     in publications or presentations arising from this work. More details at
     http://www.quantum-espresso.org/quote

     Parallel version (MPI), running on     1 processors

     MPI processes distributed on     1 nodes
     376 MiB available memory on the printing compute node when the environment starts

     Reading input from 02-fe-nscf.in

     Current dimensions of program PWSCF are:
     Max number of different atomic species (ntypx) = 10
     Max number of k-points (npk) =  40000
     Max angular momentum in pseudopotentials (lmaxx) =  4

     Atomic positions and unit cell read from directory:
     ./fe.save/


     Subspace diagonalization in iterative solution of the eigenvalue problem:
     a serial algorithm will be used


     G-vector sticks info
     --------------------
     sticks:   dense  smooth     PW     G-vecs:    dense   smooth      PW
     Sum         645     261     91                10425     2659     555

     Using Slab Decomposition



     bravais-lattice index     =            3
     lattice parameter (alat)  =       5.3603  a.u.
     unit-cell volume          =      77.0100 (a.u.)^3
     number of atoms/cell      =            1
     number of atomic types    =            1
     number of electrons       =        16.00
     number of Kohn-Sham states=           20
     kinetic-energy cutoff     =      40.0000  Ry
     charge density cutoff     =     400.0000  Ry
     Exchange-correlation=  SLA  PW   PBX  PBC
                           (   1   4   3   4   0   0   0)

     celldm(1)=   5.360341  celldm(2)=   0.000000  celldm(3)=   0.000000
     celldm(4)=   0.000000  celldm(5)=   0.000000  celldm(6)=   0.000000

     crystal axes: (cart. coord. in units of alat)
               a(1) = (   0.500000   0.500000   0.500000 )  
               a(2) = (  -0.500000   0.500000   0.500000 )  
               a(3) = (  -0.500000  -0.500000   0.500000 )  

     reciprocal axes: (cart. coord. in units 2 pi/alat)
               b(1) = (  1.000000  0.000000  1.000000 )  
               b(2) = ( -1.000000  1.000000  0.000000 )  
               b(3) = (  0.000000 -1.000000  1.000000 )  


     PseudoPot. # 1 for Fe read from file:
     /home/user/pseudo_dir/fe_pbe_v1.5.uspp.F.UPF
     MD5 check sum: a130daea23fe5165f5d574ae7f82ed95
     Pseudo is Ultrasoft + core correction, Zval = 16.0
     Generated by new atomic code, or converted to UPF format
     Using radial grid of  861 points,  6 beta functions with: 
                l(1) =   0
                l(2) =   0
                l(3) =   1
                l(4) =   1
                l(5) =   2
                l(6) =   2
     Q(r) pseudized with  8 coefficients,  rinner =    1.000   1.000   1.000
                                                       1.000   1.000

     atomic species   valence    mass     pseudopotential
        Fe            16.00    55.84700     Fe( 1.00)

     Starting magnetic structure 
     atomic species   magnetization
        Fe           0.500

     48 Sym. Ops., with inversion, found


                                    s                        frac. trans.

      isym =  1     identity                                     

 cryst.   s( 1) = (     1          0          0      )
                  (     0          1          0      )
                  (     0          0          1      )

 cart.    s( 1) = (  1.0000000  0.0000000  0.0000000 )
                  (  0.0000000  1.0000000  0.0000000 )
                  (  0.0000000  0.0000000  1.0000000 )


      isym =  2     180 deg rotation - cart. axis [0,0,1]        

 cryst.   s( 2) = (     0          0          1      )
                  (     1         -1          1      )
                  (     1          0          0      )

 cart.    s( 2) = ( -1.0000000  0.0000000  0.0000000 )
                  (  0.0000000 -1.0000000  0.0000000 )
                  (  0.0000000  0.0000000  1.0000000 )


      isym =  3     180 deg rotation - cart. axis [0,1,0]        

 cryst.   s( 3) = (    -1          1         -1      )
                  (     0          0         -1      )
                  (     0         -1          0      )

 cart.    s( 3) = ( -1.0000000  0.0000000  0.0000000 )
                  (  0.0000000  1.0000000  0.0000000 )
                  (  0.0000000  0.0000000 -1.0000000 )


      isym =  4     180 deg rotation - cart. axis [1,0,0]        

 cryst.   s( 4) = (     0         -1          0      )
                  (    -1          0          0      )
                  (    -1          1         -1      )

 cart.    s( 4) = (  1.0000000  0.0000000  0.0000000 )
                  (  0.0000000 -1.0000000  0.0000000 )
                  (  0.0000000  0.0000000 -1.0000000 )


      isym =  5     180 deg rotation - cart. axis [1,1,0]        

 cryst.   s( 5) = (     0          0         -1      )
                  (     0         -1          0      )
                  (    -1          0          0      )

 cart.    s( 5) = (  0.0000000  1.0000000  0.0000000 )
                  (  1.0000000  0.0000000  0.0000000 )
                  (  0.0000000  0.0000000 -1.0000000 )


      isym =  6     180 deg rotation - cart. axis [1,-1,0]       

 cryst.   s( 6) = (    -1          0          0      )
                  (    -1          1         -1      )
                  (     0          0         -1      )

 cart.    s( 6) = (  0.0000000 -1.0000000  0.0000000 )
                  ( -1.0000000  0.0000000  0.0000000 )
                  (  0.0000000  0.0000000 -1.0000000 )


      isym =  7      90 deg rotation - cart. axis [0,0,-1]       

 cryst.   s( 7) = (     1         -1          1      )
                  (     1          0          0      )
                  (     0          1          0      )

 cart.    s( 7) = (  0.0000000  1.0000000  0.0000000 )
                  ( -1.0000000  0.0000000  0.0000000 )
                  (  0.0000000  0.0000000  1.0000000 )


      isym =  8      90 deg rotation - cart. axis [0,0,1]        

 cryst.   s( 8) = (     0          1          0      )
                  (     0          0          1      )
                  (     1         -1          1      )

 cart.    s( 8) = (  0.0000000 -1.0000000  0.0000000 )
                  (  1.0000000  0.0000000  0.0000000 )
                  (  0.0000000  0.0000000  1.0000000 )


      isym =  9     180 deg rotation - cart. axis [1,0,1]        

 cryst.   s( 9) = (     1         -1          1      )
                  (     0         -1          0      )
                  (     0          0         -1      )

 cart.    s( 9) = (  0.0000000  0.0000000  1.0000000 )
                  (  0.0000000 -1.0000000  0.0000000 )
                  (  1.0000000  0.0000000  0.0000000 )


      isym = 10     180 deg rotation - cart. axis [-1,0,1]       

 cryst.   s(10) = (    -1          0          0      )
                  (     0          0          1      )
                  (     0          1          0      )

 cart.    s(10) = (  0.0000000  0.0000000 -1.0000000 )
                  (  0.0000000 -1.0000000  0.0000000 )
                  ( -1.0000000  0.0000000  0.0000000 )


      isym = 11      90 deg rotation - cart. axis [0,1,0]        

 cryst.   s(11) = (     0          0         -1      )
                  (     1          0          0      )
                  (     1         -1          1      )

 cart.    s(11) = (  0.0000000  0.0000000  1.0000000 )
                  (  0.0000000  1.0000000  0.0000000 )
                  ( -1.0000000  0.0000000  0.0000000 )


      isym = 12      90 deg rotation - cart. axis [0,-1,0]       

 cryst.   s(12) = (     0          1          0      )
                  (    -1          1         -1      )
                  (    -1          0          0      )

 cart.    s(12) = (  0.0000000  0.0000000 -1.0000000 )
                  (  0.0000000  1.0000000  0.0000000 )
                  (  1.0000000  0.0000000  0.0000000 )


      isym = 13     180 deg rotation - cart. axis [0,1,1]        

 cryst.   s(13) = (     0          1          0      )
                  (     1          0          0      )
                  (     0          0         -1      )

 cart.    s(13) = ( -1.0000000  0.0000000  0.0000000 )
                  (  0.0000000  0.0000000  1.0000000 )
                  (  0.0000000  1.0000000  0.0000000 )


      isym = 14     180 deg rotation - cart. axis [0,1,-1]       

 cryst.   s(14) = (    -1          0          0      )
                  (     0         -1          0      )
                  (     1         -1          1      )

 cart.    s(14) = ( -1.0000000  0.0000000  0.0000000 )
                  (  0.0000000  0.0000000 -1.0000000 )
                  (  0.0000000 -1.0000000  0.0000000 )


      isym = 15      90 deg rotation - cart. axis [-1,0,0]       

 cryst.   s(15) = (     0          0         -1      )
                  (    -1          1         -1      )
                  (     0          1          0      )

 cart.    s(15) = (  1.0000000  0.0000000  0.0000000 )
                  (  0.0000000  0.0000000  1.0000000 )
                  (  0.0000000 -1.0000000  0.0000000 )


      isym = 16      90 deg rotation - cart. axis [1,0,0]        

 cryst.   s(16) = (     1         -1          1      )
                  (     0          0          1      )
                  (    -1          0          0      )

 cart.    s(16) = (  1.0000000  0.0000000  0.0000000 )
                  (  0.0000000  0.0000000 -1.0000000 )
                  (  0.0000000  1.0000000  0.0000000 )


      isym = 17     120 deg rotation - cart. axis [-1,-1,-1]     

 cryst.   s(17) = (     1          0          0      )
                  (     0          0         -1      )
                  (    -1          1         -1      )

 cart.    s(17) = (  0.0000000  1.0000000  0.0000000 )
                  (  0.0000000  0.0000000  1.0000000 )
                  (  1.0000000  0.0000000  0.0000000 )


      isym = 18     120 deg rotation - cart. axis [-1,1,1]       

 cryst.   s(18) = (    -1          1         -1      )
                  (     0          1          0      )
                  (     1          0          0      )

 cart.    s(18) = (  0.0000000 -1.0000000  0.0000000 )
                  (  0.0000000  0.0000000  1.0000000 )
                  ( -1.0000000  0.0000000  0.0000000 )


      isym = 19     120 deg rotation - cart. axis [1,1,-1]       

 cryst.   s(19) = (     0         -1          0      )
                  (     1         -1          1      )
                  (     0          0          1      )

 cart.    s(19) = (  0.0000000  1.0000000  0.0000000 )
                  (  0.0000000  0.0000000 -1.0000000 )
                  ( -1.0000000  0.0000000  0.0000000 )


      isym = 20     120 deg rotation - cart. axis [1,-1,1]       

 cryst.   s(20) = (     0          0          1      )
                  (    -1          0          0      )
                  (     0         -1          0      )

 cart.    s(20) = (  0.0000000 -1.0000000  0.0000000 )
                  (  0.0000000  0.0000000 -1.0000000 )
                  (  1.0000000  0.0000000  0.0000000 )


      isym = 21     120 deg rotation - cart. axis [1,1,1]        

 cryst.   s(21) = (     1          0          0      )
                  (     1         -1          1      )
                  (     0         -1          0      )

 cart.    s(21) = (  0.0000000  0.0000000  1.0000000 )
                  (  1.0000000  0.0000000  0.0000000 )
                  (  0.0000000  1.0000000  0.0000000 )


      isym = 22     120 deg rotation - cart. axis [-1,1,-1]      

 cryst.   s(22) = (     0         -1          0      )
                  (     0          0         -1      )
                  (     1          0          0      )

 cart.    s(22) = (  0.0000000  0.0000000  1.0000000 )
                  ( -1.0000000  0.0000000  0.0000000 )
                  (  0.0000000 -1.0000000  0.0000000 )


      isym = 23     120 deg rotation - cart. axis [1,-1,-1]      

 cryst.   s(23) = (     0          0          1      )
                  (     0          1          0      )
                  (    -1          1         -1      )

 cart.    s(23) = (  0.0000000  0.0000000 -1.0000000 )
                  ( -1.0000000  0.0000000  0.0000000 )
                  (  0.0000000  1.0000000  0.0000000 )


      isym = 24     120 deg rotation - cart. axis [-1,-1,1]      

 cryst.   s(24) = (    -1          1         -1      )
                  (    -1          0          0      )
                  (     0          0          1      )

 cart.    s(24) = (  0.0000000  0.0000000 -1.0000000 )
                  (  1.0000000  0.0000000  0.0000000 )
                  (  0.0000000 -1.0000000  0.0000000 )


      isym = 25     inversion                                    

 cryst.   s(25) = (    -1          0          0      )
                  (     0         -1          0      )
                  (     0          0         -1      )

 cart.    s(25) = ( -1.0000000  0.0000000  0.0000000 )
                  (  0.0000000 -1.0000000  0.0000000 )
                  (  0.0000000  0.0000000 -1.0000000 )


      isym = 26     inv. 180 deg rotation - cart. axis [0,0,1]   

 cryst.   s(26) = (     0          0         -1      )
                  (    -1          1         -1      )
                  (    -1          0          0      )

 cart.    s(26) = (  1.0000000  0.0000000  0.0000000 )
                  (  0.0000000  1.0000000  0.0000000 )
                  (  0.0000000  0.0000000 -1.0000000 )


      isym = 27     inv. 180 deg rotation - cart. axis [0,1,0]   

 cryst.   s(27) = (     1         -1          1      )
                  (     0          0          1      )
                  (     0          1          0      )

 cart.    s(27) = (  1.0000000  0.0000000  0.0000000 )
                  (  0.0000000 -1.0000000  0.0000000 )
                  (  0.0000000  0.0000000  1.0000000 )


      isym = 28     inv. 180 deg rotation - cart. axis [1,0,0]   

 cryst.   s(28) = (     0          1          0      )
                  (     1          0          0      )
                  (     1         -1          1      )

 cart.    s(28) = ( -1.0000000  0.0000000  0.0000000 )
                  (  0.0000000  1.0000000  0.0000000 )
                  (  0.0000000  0.0000000  1.0000000 )


      isym = 29     inv. 180 deg rotation - cart. axis [1,1,0]   

 cryst.   s(29) = (     0          0          1      )
                  (     0          1          0      )
                  (     1          0          0      )

 cart.    s(29) = (  0.0000000 -1.0000000  0.0000000 )
                  ( -1.0000000  0.0000000  0.0000000 )
                  (  0.0000000  0.0000000  1.0000000 )


      isym = 30     inv. 180 deg rotation - cart. axis [1,-1,0]  

 cryst.   s(30) = (     1          0          0      )
                  (     1         -1          1      )
                  (     0          0          1      )

 cart.    s(30) = (  0.0000000  1.0000000  0.0000000 )
                  (  1.0000000  0.0000000  0.0000000 )
                  (  0.0000000  0.0000000  1.0000000 )


      isym = 31     inv.  90 deg rotation - cart. axis [0,0,-1]  

 cryst.   s(31) = (    -1          1         -1      )
                  (    -1          0          0      )
                  (     0         -1          0      )

 cart.    s(31) = (  0.0000000 -1.0000000  0.0000000 )
                  (  1.0000000  0.0000000  0.0000000 )
                  (  0.0000000  0.0000000 -1.0000000 )


      isym = 32     inv.  90 deg rotation - cart. axis [0,0,1]   

 cryst.   s(32) = (     0         -1          0      )
                  (     0          0         -1      )
                  (    -1          1         -1      )

 cart.    s(32) = (  0.0000000  1.0000000  0.0000000 )
                  ( -1.0000000  0.0000000  0.0000000 )
                  (  0.0000000  0.0000000 -1.0000000 )


      isym = 33     inv. 180 deg rotation - cart. axis [1,0,1]   

 cryst.   s(33) = (    -1          1         -1      )
                  (     0          1          0      )
                  (     0          0          1      )

 cart.    s(33) = (  0.0000000  0.0000000 -1.0000000 )
                  (  0.0000000  1.0000000  0.0000000 )
                  ( -1.0000000  0.0000000  0.0000000 )


      isym = 34     inv. 180 deg rotation - cart. axis [-1,0,1]  

 cryst.   s(34) = (     1          0          0      )
                  (     0          0         -1      )
                  (     0         -1          0      )

 cart.    s(34) = (  0.0000000  0.0000000  1.0000000 )
                  (  0.0000000  1.0000000  0.0000000 )
                  (  1.0000000  0.0000000  0.0000000 )


      isym = 35     inv.  90 deg rotation - cart. axis [0,1,0]   

 cryst.   s(35) = (     0          0          1      )
                  (    -1          0          0      )
                  (    -1          1         -1      )

 cart.    s(35) = (  0.0000000  0.0000000 -1.0000000 )
                  (  0.0000000 -1.0000000  0.0000000 )
                  (  1.0000000  0.0000000  0.0000000 )


      isym = 36     inv.  90 deg rotation - cart. axis [0,-1,0]  

 cryst.   s(36) = (     0         -1          0      )
                  (     1         -1          1      )
                  (     1          0          0      )

 cart.    s(36) = (  0.0000000  0.0000000  1.0000000 )
                  (  0.0000000 -1.0000000  0.0000000 )
                  ( -1.0000000  0.0000000  0.0000000 )


      isym = 37     inv. 180 deg rotation - cart. axis [0,1,1]   

 cryst.   s(37) = (     0         -1          0      )
                  (    -1          0          0      )
                  (     0          0          1      )

 cart.    s(37) = (  1.0000000  0.0000000  0.0000000 )
                  (  0.0000000  0.0000000 -1.0000000 )
                  (  0.0000000 -1.0000000  0.0000000 )


      isym = 38     inv. 180 deg rotation - cart. axis [0,1,-1]  

 cryst.   s(38) = (     1          0          0      )
                  (     0          1          0      )
                  (    -1          1         -1      )

 cart.    s(38) = (  1.0000000  0.0000000  0.0000000 )
                  (  0.0000000  0.0000000  1.0000000 )
                  (  0.0000000  1.0000000  0.0000000 )


      isym = 39     inv.  90 deg rotation - cart. axis [-1,0,0]  

 cryst.   s(39) = (     0          0          1      )
                  (     1         -1          1      )
                  (     0         -1          0      )

 cart.    s(39) = ( -1.0000000  0.0000000  0.0000000 )
                  (  0.0000000  0.0000000 -1.0000000 )
                  (  0.0000000  1.0000000  0.0000000 )


      isym = 40     inv.  90 deg rotation - cart. axis [1,0,0]   

 cryst.   s(40) = (    -1          1         -1      )
                  (     0          0         -1      )
                  (     1          0          0      )

 cart.    s(40) = ( -1.0000000  0.0000000  0.0000000 )
                  (  0.0000000  0.0000000  1.0000000 )
                  (  0.0000000 -1.0000000  0.0000000 )


      isym = 41     inv. 120 deg rotation - cart. axis [-1,-1,-1]

 cryst.   s(41) = (    -1          0          0      )
                  (     0          0          1      )
                  (     1         -1          1      )

 cart.    s(41) = (  0.0000000 -1.0000000  0.0000000 )
                  (  0.0000000  0.0000000 -1.0000000 )
                  ( -1.0000000  0.0000000  0.0000000 )


      isym = 42     inv. 120 deg rotation - cart. axis [-1,1,1]  

 cryst.   s(42) = (     1         -1          1      )
                  (     0         -1          0      )
                  (    -1          0          0      )

 cart.    s(42) = (  0.0000000  1.0000000  0.0000000 )
                  (  0.0000000  0.0000000 -1.0000000 )
                  (  1.0000000  0.0000000  0.0000000 )


      isym = 43     inv. 120 deg rotation - cart. axis [1,1,-1]  

 cryst.   s(43) = (     0          1          0      )
                  (    -1          1         -1      )
                  (     0          0         -1      )

 cart.    s(43) = (  0.0000000 -1.0000000  0.0000000 )
                  (  0.0000000  0.0000000  1.0000000 )
                  (  1.0000000  0.0000000  0.0000000 )


      isym = 44     inv. 120 deg rotation - cart. axis [1,-1,1]  

 cryst.   s(44) = (     0          0         -1      )
                  (     1          0          0      )
                  (     0          1          0      )

 cart.    s(44) = (  0.0000000  1.0000000  0.0000000 )
                  (  0.0000000  0.0000000  1.0000000 )
                  ( -1.0000000  0.0000000  0.0000000 )


      isym = 45     inv. 120 deg rotation - cart. axis [1,1,1]   

 cryst.   s(45) = (    -1          0          0      )
                  (    -1          1         -1      )
                  (     0          1          0      )

 cart.    s(45) = (  0.0000000  0.0000000 -1.0000000 )
                  ( -1.0000000  0.0000000  0.0000000 )
                  (  0.0000000 -1.0000000  0.0000000 )


      isym = 46     inv. 120 deg rotation - cart. axis [-1,1,-1] 

 cryst.   s(46) = (     0          1          0      )
                  (     0          0          1      )
                  (    -1          0          0      )

 cart.    s(46) = (  0.0000000  0.0000000 -1.0000000 )
                  (  1.0000000  0.0000000  0.0000000 )
                  (  0.0000000  1.0000000  0.0000000 )


      isym = 47     inv. 120 deg rotation - cart. axis [1,-1,-1] 

 cryst.   s(47) = (     0          0         -1      )
                  (     0         -1          0      )
                  (     1         -1          1      )

 cart.    s(47) = (  0.0000000  0.0000000  1.0000000 )
                  (  1.0000000  0.0000000  0.0000000 )
                  (  0.0000000 -1.0000000  0.0000000 )


      isym = 48     inv. 120 deg rotation - cart. axis [-1,-1,1] 

 cryst.   s(48) = (     1         -1          1      )
                  (     1          0          0      )
                  (     0          0         -1      )

 cart.    s(48) = (  0.0000000  0.0000000  1.0000000 )
                  ( -1.0000000  0.0000000  0.0000000 )
                  (  0.0000000  1.0000000  0.0000000 )


     point group O_h (m-3m) 
     there are 10 classes
     the character table:

       E     8C3   3C2   6C4   6C2'  i     8S6   3s_h  6S4   6s_d 
A_1g   1.00  1.00  1.00  1.00  1.00  1.00  1.00  1.00  1.00  1.00
A_2g   1.00  1.00  1.00 -1.00 -1.00  1.00  1.00  1.00 -1.00 -1.00
E_g    2.00 -1.00  2.00  0.00  0.00  2.00 -1.00  2.00  0.00  0.00
T_1g   3.00  0.00 -1.00  1.00 -1.00  3.00  0.00 -1.00  1.00 -1.00
T_2g   3.00  0.00 -1.00 -1.00  1.00  3.00  0.00 -1.00 -1.00  1.00
A_1u   1.00  1.00  1.00  1.00  1.00 -1.00 -1.00 -1.00 -1.00 -1.00
A_2u   1.00  1.00  1.00 -1.00 -1.00 -1.00 -1.00 -1.00  1.00  1.00
E_u    2.00 -1.00  2.00  0.00  0.00 -2.00  1.00 -2.00  0.00  0.00
T_1u   3.00  0.00 -1.00  1.00 -1.00 -3.00  0.00  1.00 -1.00  1.00
T_2u   3.00  0.00 -1.00 -1.00  1.00 -3.00  0.00  1.00  1.00 -1.00

     the symmetry operations in each class and the name of the first element:

     E        1
          identity                                               
     8C3     17   19   20   18   24   21   22   23
          120 deg rotation - cart. axis [-1,-1,-1]               
     3C2      2    4    3
          180 deg rotation - cart. axis [0,0,1]                  
     6C4      7    8   15   16   12   11
           90 deg rotation - cart. axis [0,0,-1]                 
     6C2'     5    6   14   13   10    9
          180 deg rotation - cart. axis [1,1,0]                  
     i       25
          inversion                                              
     8S6     41   43   44   42   48   45   46   47
          inv. 120 deg rotation - cart. axis [-1,-1,-1]          
     3s_h    26   28   27
          inv. 180 deg rotation - cart. axis [0,0,1]             
     6S4     31   32   39   40   36   35
          inv.  90 deg rotation - cart. axis [0,0,-1]            
     6s_d    29   30   38   37   34   33
          inv. 180 deg rotation - cart. axis [1,1,0]             

   Cartesian axes

     site n.     atom                  positions (alat units)
         1           Fe  tau(   1) = (   0.0000000   0.0000000   0.0000000  )

   Crystallographic axes

     site n.     atom                  positions (cryst. coord.)
         1           Fe  tau(   1) = (  0.0000000  0.0000000  0.0000000  )

     number of k points=   120 (tetrahedron method)
                       cart. coord. in units 2pi/alat
        k(    1) = (   0.0000000   0.0000000   0.0000000), wk =   0.0002963
        k(    2) = (   0.0000000  -0.0666667   0.0666667), wk =   0.0035556
        k(    3) = (   0.0000000  -0.1333333   0.1333333), wk =   0.0035556
        k(    4) = (   0.0000000  -0.2000000   0.2000000), wk =   0.0035556
        k(    5) = (   0.0000000  -0.2666667   0.2666667), wk =   0.0035556
        k(    6) = (   0.0000000  -0.3333333   0.3333333), wk =   0.0035556
        k(    7) = (   0.0000000  -0.4000000   0.4000000), wk =   0.0035556
        k(    8) = (   0.0000000  -0.4666667   0.4666667), wk =   0.0035556
        k(    9) = (  -0.0666667  -0.0666667   0.1333333), wk =   0.0071111
        k(   10) = (  -0.0666667  -0.1333333   0.2000000), wk =   0.0142222
        k(   11) = (  -0.0666667  -0.2000000   0.2666667), wk =   0.0142222
        k(   12) = (  -0.0666667  -0.2666667   0.3333333), wk =   0.0142222
        k(   13) = (  -0.0666667  -0.3333333   0.4000000), wk =   0.0142222
        k(   14) = (  -0.0666667  -0.4000000   0.4666667), wk =   0.0142222
        k(   15) = (  -0.0666667   0.5333333  -0.4666667), wk =   0.0071111
        k(   16) = (  -0.1333333  -0.1333333   0.2666667), wk =   0.0071111
        k(   17) = (  -0.1333333  -0.2000000   0.3333333), wk =   0.0142222
        k(   18) = (  -0.1333333  -0.2666667   0.4000000), wk =   0.0142222
        k(   19) = (  -0.1333333  -0.3333333   0.4666667), wk =   0.0142222
        k(   20) = (  -0.1333333   0.6000000  -0.4666667), wk =   0.0142222
        k(   21) = (  -0.2000000  -0.2000000   0.4000000), wk =   0.0071111
        k(   22) = (  -0.2000000  -0.2666667   0.4666667), wk =   0.0142222
        k(   23) = (  -0.2000000   0.6666667  -0.4666667), wk =   0.0142222
        k(   24) = (  -0.2000000   0.6000000  -0.4000000), wk =   0.0071111
        k(   25) = (  -0.2666667   0.7333333  -0.4666667), wk =   0.0071111
        k(   26) = (  -0.2666667   0.6666667  -0.4000000), wk =   0.0142222
        k(   27) = (  -0.3333333   0.6666667  -0.3333333), wk =   0.0023704
        k(   28) = (   0.0000000   0.0000000   0.1333333), wk =   0.0017778
        k(   29) = (   0.0000000  -0.0666667   0.2000000), wk =   0.0071111
        k(   30) = (   0.0000000  -0.1333333   0.2666667), wk =   0.0071111
        k(   31) = (   0.0000000  -0.2000000   0.3333333), wk =   0.0071111
        k(   32) = (   0.0000000  -0.2666667   0.4000000), wk =   0.0071111
        k(   33) = (   0.0000000  -0.3333333   0.4666667), wk =   0.0071111
        k(   34) = (   0.0000000  -0.4000000   0.5333333), wk =   0.0071111
        k(   35) = (  -0.0666667  -0.0666667   0.2666667), wk =   0.0071111
        k(   36) = (  -0.0666667  -0.1333333   0.3333333), wk =   0.0142222
        k(   37) = (  -0.0666667  -0.2000000   0.4000000), wk =   0.0142222
        k(   38) = (  -0.0666667  -0.2666667   0.4666667), wk =   0.0142222
        k(   39) = (  -0.0666667  -0.3333333   0.5333333), wk =   0.0142222
        k(   40) = (  -0.0666667   0.6000000  -0.4000000), wk =   0.0071111
        k(   41) = (  -0.1333333   0.1333333   0.1333333), wk =   0.0023704
        k(   42) = (  -0.1333333  -0.1333333   0.4000000), wk =   0.0071111
        k(   43) = (  -0.1333333  -0.2000000   0.4666667), wk =   0.0142222
        k(   44) = (  -0.1333333  -0.2666667   0.5333333), wk =   0.0142222
        k(   45) = (  -0.1333333   0.6666667  -0.4000000), wk =   0.0142222
        k(   46) = (  -0.2000000   0.2000000   0.1333333), wk =   0.0071111
        k(   47) = (  -0.2000000  -0.2000000   0.5333333), wk =   0.0071111
        k(   48) = (  -0.2000000   0.7333333  -0.4000000), wk =   0.0142222
        k(   49) = (  -0.2000000   0.6666667  -0.3333333), wk =   0.0071111
        k(   50) = (  -0.2666667   0.2666667   0.1333333), wk =   0.0071111
        k(   51) = (  -0.2666667   0.2000000   0.2000000), wk =   0.0071111
        k(   52) = (  -0.2666667   0.7333333  -0.3333333), wk =   0.0071111
        k(   53) = (  -0.3333333   0.3333333   0.1333333), wk =   0.0071111
        k(   54) = (  -0.3333333   0.2666667   0.2000000), wk =   0.0142222
        k(   55) = (  -0.4000000   0.4000000   0.1333333), wk =   0.0071111
        k(   56) = (  -0.4000000   0.3333333   0.2000000), wk =   0.0142222
        k(   57) = (  -0.4000000   0.2666667   0.2666667), wk =   0.0071111
        k(   58) = (   0.5333333  -0.5333333   0.1333333), wk =   0.0071111
        k(   59) = (   0.5333333  -0.6000000   0.2000000), wk =   0.0142222
        k(   60) = (   0.5333333  -0.6666667   0.2666667), wk =   0.0142222
        k(   61) = (   0.4666667  -0.5333333   0.2000000), wk =   0.0071111
        k(   62) = (   0.4666667  -0.6000000   0.2666667), wk =   0.0142222
        k(   63) = (   0.4666667  -0.6666667   0.3333333), wk =   0.0071111
        k(   64) = (   0.4000000  -0.6000000   0.3333333), wk =   0.0071111
        k(   65) = (   0.0000000   0.0000000   0.2666667), wk =   0.0017778
        k(   66) = (   0.0000000  -0.0666667   0.3333333), wk =   0.0071111
        k(   67) = (   0.0000000  -0.1333333   0.4000000), wk =   0.0071111
        k(   68) = (   0.0000000  -0.2000000   0.4666667), wk =   0.0071111
        k(   69) = (   0.0000000  -0.2666667   0.5333333), wk =   0.0071111
        k(   70) = (   0.0000000  -0.3333333   0.6000000), wk =   0.0071111
        k(   71) = (  -0.0666667  -0.0666667   0.4000000), wk =   0.0071111
        k(   72) = (  -0.0666667  -0.1333333   0.4666667), wk =   0.0142222
        k(   73) = (  -0.0666667  -0.2000000   0.5333333), wk =   0.0142222
        k(   74) = (  -0.0666667  -0.2666667   0.6000000), wk =   0.0142222
        k(   75) = (  -0.0666667   0.6666667  -0.3333333), wk =   0.0071111
        k(   76) = (  -0.1333333  -0.1333333   0.5333333), wk =   0.0071111
        k(   77) = (  -0.1333333  -0.2000000   0.6000000), wk =   0.0142222
        k(   78) = (  -0.1333333   0.7333333  -0.3333333), wk =   0.0142222
        k(   79) = (  -0.2000000   0.8000000  -0.3333333), wk =   0.0071111
        k(   80) = (  -0.2000000   0.7333333  -0.2666667), wk =   0.0071111
        k(   81) = (  -0.2666667   0.2666667   0.2666667), wk =   0.0023704
        k(   82) = (  -0.3333333   0.3333333   0.2666667), wk =   0.0071111
        k(   83) = (   0.6000000  -0.6000000   0.2666667), wk =   0.0071111
        k(   84) = (   0.6000000  -0.6666667   0.3333333), wk =   0.0071111
        k(   85) = (   0.5333333  -0.5333333   0.2666667), wk =   0.0071111
        k(   86) = (   0.5333333  -0.6000000   0.3333333), wk =   0.0142222
        k(   87) = (   0.4666667  -0.5333333   0.3333333), wk =   0.0071111
        k(   88) = (   0.4666667  -0.6000000   0.4000000), wk =   0.0071111
        k(   89) = (   0.0000000   0.0000000   0.4000000), wk =   0.0017778
        k(   90) = (   0.0000000  -0.0666667   0.4666667), wk =   0.0071111
        k(   91) = (   0.0000000  -0.1333333   0.5333333), wk =   0.0071111
        k(   92) = (   0.0000000  -0.2000000   0.6000000), wk =   0.0071111
        k(   93) = (   0.0000000  -0.2666667   0.6666667), wk =   0.0071111
        k(   94) = (  -0.0666667  -0.0666667   0.5333333), wk =   0.0071111
        k(   95) = (  -0.0666667  -0.1333333   0.6000000), wk =   0.0142222
        k(   96) = (  -0.0666667  -0.2000000   0.6666667), wk =   0.0142222
        k(   97) = (  -0.0666667   0.7333333  -0.2666667), wk =   0.0071111
        k(   98) = (  -0.1333333  -0.1333333   0.6666667), wk =   0.0071111
        k(   99) = (  -0.1333333   0.8000000  -0.2666667), wk =   0.0142222
        k(  100) = (  -0.2000000   0.8000000  -0.2000000), wk =   0.0023704
        k(  101) = (   0.6000000  -0.6000000   0.4000000), wk =   0.0023704
        k(  102) = (   0.5333333  -0.5333333   0.4000000), wk =   0.0071111
        k(  103) = (   0.4666667  -0.5333333   0.4666667), wk =   0.0023704
        k(  104) = (   0.0000000   0.0000000   0.5333333), wk =   0.0017778
        k(  105) = (   0.0000000  -0.0666667   0.6000000), wk =   0.0071111
        k(  106) = (   0.0000000  -0.1333333   0.6666667), wk =   0.0071111
        k(  107) = (   0.0000000  -0.2000000   0.7333333), wk =   0.0071111
        k(  108) = (  -0.0666667  -0.0666667   0.6666667), wk =   0.0071111
        k(  109) = (  -0.0666667  -0.1333333   0.7333333), wk =   0.0142222
        k(  110) = (  -0.0666667   0.8000000  -0.2000000), wk =   0.0071111
        k(  111) = (  -0.1333333   0.8666667  -0.2000000), wk =   0.0071111
        k(  112) = (   0.0000000   0.0000000   0.6666667), wk =   0.0017778
        k(  113) = (   0.0000000  -0.0666667   0.7333333), wk =   0.0071111
        k(  114) = (   0.0000000  -0.1333333   0.8000000), wk =   0.0071111
        k(  115) = (  -0.0666667  -0.0666667   0.8000000), wk =   0.0071111
        k(  116) = (  -0.0666667   0.8666667  -0.1333333), wk =   0.0071111
        k(  117) = (   0.0000000   0.0000000   0.8000000), wk =   0.0017778
        k(  118) = (   0.0000000  -0.0666667   0.8666667), wk =   0.0071111
        k(  119) = (  -0.0666667   0.9333333  -0.0666667), wk =   0.0023704
        k(  120) = (   0.0000000   0.0000000   0.9333333), wk =   0.0017778

                       cryst. coord.
        k(    1) = (   0.0000000   0.0000000   0.0000000), wk =   0.0002963
        k(    2) = (   0.0000000   0.0000000   0.0666667), wk =   0.0035556
        k(    3) = (   0.0000000   0.0000000   0.1333333), wk =   0.0035556
        k(    4) = (   0.0000000   0.0000000   0.2000000), wk =   0.0035556
        k(    5) = (   0.0000000   0.0000000   0.2666667), wk =   0.0035556
        k(    6) = (   0.0000000   0.0000000   0.3333333), wk =   0.0035556
        k(    7) = (   0.0000000   0.0000000   0.4000000), wk =   0.0035556
        k(    8) = (   0.0000000   0.0000000   0.4666667), wk =   0.0035556
        k(    9) = (   0.0000000   0.0666667   0.1333333), wk =   0.0071111
        k(   10) = (  -0.0000000   0.0666667   0.2000000), wk =   0.0142222
        k(   11) = (   0.0000000   0.0666667   0.2666667), wk =   0.0142222
        k(   12) = (  -0.0000000   0.0666667   0.3333333), wk =   0.0142222
        k(   13) = (   0.0000000   0.0666667   0.4000000), wk =   0.0142222
        k(   14) = (   0.0000000   0.0666667   0.4666667), wk =   0.0142222
        k(   15) = (   0.0000000   0.0666667  -0.4666667), wk =   0.0071111
        k(   16) = (   0.0000000   0.1333333   0.2666667), wk =   0.0071111
        k(   17) = (  -0.0000000   0.1333333   0.3333333), wk =   0.0142222
        k(   18) = (  -0.0000000   0.1333333   0.4000000), wk =   0.0142222
        k(   19) = (   0.0000000   0.1333333   0.4666667), wk =   0.0142222
        k(   20) = (   0.0000000   0.1333333  -0.4666667), wk =   0.0142222
        k(   21) = (   0.0000000   0.2000000   0.4000000), wk =   0.0071111
        k(   22) = (   0.0000000   0.2000000   0.4666667), wk =   0.0142222
        k(   23) = (  -0.0000000   0.2000000  -0.4666667), wk =   0.0142222
        k(   24) = (   0.0000000   0.2000000  -0.4000000), wk =   0.0071111
        k(   25) = (  -0.0000000   0.2666667  -0.4666667), wk =   0.0071111
        k(   26) = (  -0.0000000   0.2666667  -0.4000000), wk =   0.0142222
        k(   27) = (  -0.0000000   0.3333333  -0.3333333), wk =   0.0023704
        k(   28) = (   0.0666667   0.0666667   0.0666667), wk =   0.0017778
        k(   29) = (   0.0666667   0.0666667   0.1333333), wk =   0.0071111
        k(   30) = (   0.0666667   0.0666667   0.2000000), wk =   0.0071111
        k(   31) = (   0.0666667   0.0666667   0.2666667), wk =   0.0071111
        k(   32) = (   0.0666667   0.0666667   0.3333333), wk =   0.0071111
        k(   33) = (   0.0666667   0.0666667   0.4000000), wk =   0.0071111
        k(   34) = (   0.0666667   0.0666667   0.4666667), wk =   0.0071111
        k(   35) = (   0.0666667   0.1333333   0.2000000), wk =   0.0071111
        k(   36) = (   0.0666667   0.1333333   0.2666667), wk =   0.0142222
        k(   37) = (   0.0666667   0.1333333   0.3333333), wk =   0.0142222
        k(   38) = (   0.0666667   0.1333333   0.4000000), wk =   0.0142222
        k(   39) = (   0.0666667   0.1333333   0.4666667), wk =   0.0142222
        k(   40) = (   0.0666667   0.1333333  -0.4666667), wk =   0.0071111
        k(   41) = (   0.0666667   0.2000000   0.0666667), wk =   0.0023704
        k(   42) = (   0.0666667   0.2000000   0.3333333), wk =   0.0071111
        k(   43) = (   0.0666667   0.2000000   0.4000000), wk =   0.0142222
        k(   44) = (   0.0666667   0.2000000   0.4666667), wk =   0.0142222
        k(   45) = (   0.0666667   0.2000000  -0.4666667), wk =   0.0142222
        k(   46) = (   0.0666667   0.2666667   0.0666667), wk =   0.0071111
        k(   47) = (   0.0666667   0.2666667   0.4666667), wk =   0.0071111
        k(   48) = (   0.0666667   0.2666667  -0.4666667), wk =   0.0142222
        k(   49) = (   0.0666667   0.2666667  -0.4000000), wk =   0.0071111
        k(   50) = (   0.0666667   0.3333333   0.0666667), wk =   0.0071111
        k(   51) = (   0.0666667   0.3333333   0.1333333), wk =   0.0071111
        k(   52) = (   0.0666667   0.3333333  -0.4000000), wk =   0.0071111
        k(   53) = (   0.0666667   0.4000000   0.0666667), wk =   0.0071111
        k(   54) = (   0.0666667   0.4000000   0.1333333), wk =   0.0142222
        k(   55) = (   0.0666667   0.4666667   0.0666667), wk =   0.0071111
        k(   56) = (   0.0666667   0.4666667   0.1333333), wk =   0.0142222
        k(   57) = (   0.0666667   0.4666667   0.2000000), wk =   0.0071111
        k(   58) = (   0.0666667  -0.4666667   0.0666667), wk =   0.0071111
        k(   59) = (   0.0666667  -0.4666667   0.1333333), wk =   0.0142222
        k(   60) = (   0.0666667  -0.4666667   0.2000000), wk =   0.0142222
        k(   61) = (   0.0666667  -0.4000000   0.1333333), wk =   0.0071111
        k(   62) = (   0.0666667  -0.4000000   0.2000000), wk =   0.0142222
        k(   63) = (   0.0666667  -0.4000000   0.2666667), wk =   0.0071111
        k(   64) = (   0.0666667  -0.3333333   0.2666667), wk =   0.0071111
        k(   65) = (   0.1333333   0.1333333   0.1333333), wk =   0.0017778
        k(   66) = (   0.1333333   0.1333333   0.2000000), wk =   0.0071111
        k(   67) = (   0.1333333   0.1333333   0.2666667), wk =   0.0071111
        k(   68) = (   0.1333333   0.1333333   0.3333333), wk =   0.0071111
        k(   69) = (   0.1333333   0.1333333   0.4000000), wk =   0.0071111
        k(   70) = (   0.1333333   0.1333333   0.4666667), wk =   0.0071111
        k(   71) = (   0.1333333   0.2000000   0.2666667), wk =   0.0071111
        k(   72) = (   0.1333333   0.2000000   0.3333333), wk =   0.0142222
        k(   73) = (   0.1333333   0.2000000   0.4000000), wk =   0.0142222
        k(   74) = (   0.1333333   0.2000000   0.4666667), wk =   0.0142222
        k(   75) = (   0.1333333   0.2000000  -0.4666667), wk =   0.0071111
        k(   76) = (   0.1333333   0.2666667   0.4000000), wk =   0.0071111
        k(   77) = (   0.1333333   0.2666667   0.4666667), wk =   0.0142222
        k(   78) = (   0.1333333   0.2666667  -0.4666667), wk =   0.0142222
        k(   79) = (   0.1333333   0.3333333  -0.4666667), wk =   0.0071111
        k(   80) = (   0.1333333   0.3333333  -0.4000000), wk =   0.0071111
        k(   81) = (   0.1333333   0.4000000   0.1333333), wk =   0.0023704
        k(   82) = (   0.1333333   0.4666667   0.1333333), wk =   0.0071111
        k(   83) = (   0.1333333  -0.4666667   0.1333333), wk =   0.0071111
        k(   84) = (   0.1333333  -0.4666667   0.2000000), wk =   0.0071111
        k(   85) = (   0.1333333  -0.4000000   0.1333333), wk =   0.0071111
        k(   86) = (   0.1333333  -0.4000000   0.2000000), wk =   0.0142222
        k(   87) = (   0.1333333  -0.3333333   0.2000000), wk =   0.0071111
        k(   88) = (   0.1333333  -0.3333333   0.2666667), wk =   0.0071111
        k(   89) = (   0.2000000   0.2000000   0.2000000), wk =   0.0017778
        k(   90) = (   0.2000000   0.2000000   0.2666667), wk =   0.0071111
        k(   91) = (   0.2000000   0.2000000   0.3333333), wk =   0.0071111
        k(   92) = (   0.2000000   0.2000000   0.4000000), wk =   0.0071111
        k(   93) = (   0.2000000   0.2000000   0.4666667), wk =   0.0071111
        k(   94) = (   0.2000000   0.2666667   0.3333333), wk =   0.0071111
        k(   95) = (   0.2000000   0.2666667   0.4000000), wk =   0.0142222
        k(   96) = (   0.2000000   0.2666667   0.4666667), wk =   0.0142222
        k(   97) = (   0.2000000   0.2666667  -0.4666667), wk =   0.0071111
        k(   98) = (   0.2000000   0.3333333   0.4666667), wk =   0.0071111
        k(   99) = (   0.2000000   0.3333333  -0.4666667), wk =   0.0142222
        k(  100) = (   0.2000000   0.4000000  -0.4000000), wk =   0.0023704
        k(  101) = (   0.2000000  -0.4000000   0.2000000), wk =   0.0023704
        k(  102) = (   0.2000000  -0.3333333   0.2000000), wk =   0.0071111
        k(  103) = (   0.2000000  -0.2666667   0.2666667), wk =   0.0023704
        k(  104) = (   0.2666667   0.2666667   0.2666667), wk =   0.0017778
        k(  105) = (   0.2666667   0.2666667   0.3333333), wk =   0.0071111
        k(  106) = (   0.2666667   0.2666667   0.4000000), wk =   0.0071111
        k(  107) = (   0.2666667   0.2666667   0.4666667), wk =   0.0071111
        k(  108) = (   0.2666667   0.3333333   0.4000000), wk =   0.0071111
        k(  109) = (   0.2666667   0.3333333   0.4666667), wk =   0.0142222
        k(  110) = (   0.2666667   0.3333333  -0.4666667), wk =   0.0071111
        k(  111) = (   0.2666667   0.4000000  -0.4666667), wk =   0.0071111
        k(  112) = (   0.3333333   0.3333333   0.3333333), wk =   0.0017778
        k(  113) = (   0.3333333   0.3333333   0.4000000), wk =   0.0071111
        k(  114) = (   0.3333333   0.3333333   0.4666667), wk =   0.0071111
        k(  115) = (   0.3333333   0.4000000   0.4666667), wk =   0.0071111
        k(  116) = (   0.3333333   0.4000000  -0.4666667), wk =   0.0071111
        k(  117) = (   0.4000000   0.4000000   0.4000000), wk =   0.0017778
        k(  118) = (   0.4000000   0.4000000   0.4666667), wk =   0.0071111
        k(  119) = (   0.4000000   0.4666667  -0.4666667), wk =   0.0023704
        k(  120) = (   0.4666667   0.4666667   0.4666667), wk =   0.0017778

     Dense  grid:    10425 G-vectors     FFT dimensions: (  30,  30,  30)

     Smooth grid:     2659 G-vectors     FFT dimensions: (  20,  20,  20)

     Dynamical RAM for                 wfc:       0.10 MB

     Dynamical RAM for     wfc (w. buffer):       0.10 MB

     Dynamical RAM for           str. fact:       0.16 MB

     Dynamical RAM for           local pot:       0.00 MB

     Dynamical RAM for          nlocal pot:       0.09 MB

     Dynamical RAM for                qrad:       1.61 MB

     Dynamical RAM for          rho,v,vnew:       2.19 MB

     Dynamical RAM for           G-vectors:       0.62 MB

     Dynamical RAM for          h,s,v(r/c):       0.07 MB

     Dynamical RAM for          <psi|beta>:       0.01 MB

     Dynamical RAM for                 psi:       0.20 MB

     Dynamical RAM for                hpsi:       0.20 MB

     Dynamical RAM for                spsi:       0.20 MB

     Dynamical RAM for      wfcinit/wfcrot:       0.21 MB

     Dynamical RAM for           addusdens:      29.91 MB

     Estimated static dynamical RAM per process >       6.32 MB

     Estimated max dynamical RAM per process >      36.22 MB

     Check: negative core charge=   -0.000042
     Generating pointlists ...
     new r_m :   0.3572 (alat units)  1.9149 (a.u.) for type    1

     The potential is recalculated from file :
     ./fe.save/charge-density

     Starting wfcs are   13 randomized atomic wfcs +    7 random wfcs

     Band Structure Calculation
     Davidson diagonalization with overlap

     Computing kpt #:     1  of   240
     total cpu time spent up to now is        2.9 secs

     Computing kpt #:     2  of   240
     total cpu time spent up to now is        3.1 secs

     Computing kpt #:     3  of   240
     total cpu time spent up to now is        3.3 secs

     Computing kpt #:     4  of   240
     total cpu time spent up to now is        3.5 secs

     Computing kpt #:     5  of   240
     total cpu time spent up to now is        3.7 secs

     Computing kpt #:     6  of   240
     total cpu time spent up to now is        3.9 secs

     Computing kpt #:     7  of   240
     total cpu time spent up to now is        4.1 secs

     Computing kpt #:     8  of   240
     total cpu time spent up to now is        4.2 secs

     Computing kpt #:     9  of   240
     total cpu time spent up to now is        4.4 secs

     Computing kpt #:    10  of   240
     total cpu time spent up to now is        4.6 secs

     Computing kpt #:    11  of   240
     total cpu time spent up to now is        4.8 secs

     Computing kpt #:    12  of   240
     total cpu time spent up to now is        5.0 secs

     Computing kpt #:    13  of   240
     total cpu time spent up to now is        5.2 secs

     Computing kpt #:    14  of   240
     total cpu time spent up to now is        5.4 secs

     Computing kpt #:    15  of   240
     total cpu time spent up to now is        5.6 secs

     Computing kpt #:    16  of   240
     total cpu time spent up to now is        5.8 secs

     Computing kpt #:    17  of   240
     total cpu time spent up to now is        6.0 secs

     Computing kpt #:    18  of   240
     total cpu time spent up to now is        6.2 secs

     Computing kpt #:    19  of   240
     total cpu time spent up to now is        6.4 secs

     Computing kpt #:    20  of   240
     total cpu time spent up to now is        6.5 secs

     Computing kpt #:    21  of   240
     total cpu time spent up to now is        6.7 secs

     Computing kpt #:    22  of   240
     total cpu time spent up to now is        6.9 secs

     Computing kpt #:    23  of   240
     total cpu time spent up to now is        7.1 secs

     Computing kpt #:    24  of   240
     total cpu time spent up to now is        7.3 secs

     Computing kpt #:    25  of   240
     total cpu time spent up to now is        7.5 secs

     Computing kpt #:    26  of   240
     total cpu time spent up to now is        7.7 secs

     Computing kpt #:    27  of   240
     total cpu time spent up to now is        7.9 secs

     Computing kpt #:    28  of   240
     total cpu time spent up to now is        8.1 secs

     Computing kpt #:    29  of   240
     total cpu time spent up to now is        8.3 secs

     Computing kpt #:    30  of   240
     total cpu time spent up to now is        8.5 secs

     Computing kpt #:    31  of   240
     total cpu time spent up to now is        8.7 secs

     Computing kpt #:    32  of   240
     total cpu time spent up to now is        8.9 secs

     Computing kpt #:    33  of   240
     total cpu time spent up to now is        9.2 secs

     Computing kpt #:    34  of   240
     total cpu time spent up to now is        9.3 secs

     Computing kpt #:    35  of   240
     total cpu time spent up to now is        9.5 secs

     Computing kpt #:    36  of   240
     total cpu time spent up to now is        9.7 secs

     Computing kpt #:    37  of   240
     total cpu time spent up to now is       10.0 secs

     Computing kpt #:    38  of   240
     total cpu time spent up to now is       10.2 secs

     Computing kpt #:    39  of   240
     total cpu time spent up to now is       10.4 secs

     Computing kpt #:    40  of   240
     total cpu time spent up to now is       10.6 secs

     Computing kpt #:    41  of   240
     total cpu time spent up to now is       10.8 secs

     Computing kpt #:    42  of   240
     total cpu time spent up to now is       11.0 secs

     Computing kpt #:    43  of   240
     total cpu time spent up to now is       11.2 secs

     Computing kpt #:    44  of   240
     total cpu time spent up to now is       11.4 secs

     Computing kpt #:    45  of   240
     total cpu time spent up to now is       11.6 secs

     Computing kpt #:    46  of   240
     total cpu time spent up to now is       11.8 secs

     Computing kpt #:    47  of   240
     total cpu time spent up to now is       12.0 secs

     Computing kpt #:    48  of   240
     total cpu time spent up to now is       12.2 secs

     Computing kpt #:    49  of   240
     total cpu time spent up to now is       12.4 secs

     Computing kpt #:    50  of   240
     total cpu time spent up to now is       12.5 secs

     Computing kpt #:    51  of   240
     total cpu time spent up to now is       12.7 secs

     Computing kpt #:    52  of   240
     total cpu time spent up to now is       12.9 secs

     Computing kpt #:    53  of   240
     total cpu time spent up to now is       13.1 secs

     Computing kpt #:    54  of   240
     total cpu time spent up to now is       13.3 secs

     Computing kpt #:    55  of   240
     total cpu time spent up to now is       13.5 secs

     Computing kpt #:    56  of   240
     total cpu time spent up to now is       13.7 secs

     Computing kpt #:    57  of   240
     total cpu time spent up to now is       13.8 secs

     Computing kpt #:    58  of   240
     total cpu time spent up to now is       14.0 secs

     Computing kpt #:    59  of   240
     total cpu time spent up to now is       14.2 secs

     Computing kpt #:    60  of   240
     total cpu time spent up to now is       14.4 secs

     Computing kpt #:    61  of   240
     total cpu time spent up to now is       14.6 secs

     Computing kpt #:    62  of   240
     total cpu time spent up to now is       14.8 secs

     Computing kpt #:    63  of   240
     total cpu time spent up to now is       15.0 secs

     Computing kpt #:    64  of   240
     total cpu time spent up to now is       15.2 secs

     Computing kpt #:    65  of   240
     total cpu time spent up to now is       15.3 secs

     Computing kpt #:    66  of   240
     total cpu time spent up to now is       15.6 secs

     Computing kpt #:    67  of   240
     total cpu time spent up to now is       15.7 secs

     Computing kpt #:    68  of   240
     total cpu time spent up to now is       15.9 secs

     Computing kpt #:    69  of   240
     total cpu time spent up to now is       16.1 secs

     Computing kpt #:    70  of   240
     total cpu time spent up to now is       16.3 secs

     Computing kpt #:    71  of   240
     total cpu time spent up to now is       16.5 secs

     Computing kpt #:    72  of   240
     total cpu time spent up to now is       16.7 secs

     Computing kpt #:    73  of   240
     total cpu time spent up to now is       16.9 secs

     Computing kpt #:    74  of   240
     total cpu time spent up to now is       17.1 secs

     Computing kpt #:    75  of   240
     total cpu time spent up to now is       17.3 secs

     Computing kpt #:    76  of   240
     total cpu time spent up to now is       17.5 secs

     Computing kpt #:    77  of   240
     total cpu time spent up to now is       17.7 secs

     Computing kpt #:    78  of   240
     total cpu time spent up to now is       17.9 secs

     Computing kpt #:    79  of   240
     total cpu time spent up to now is       18.1 secs

     Computing kpt #:    80  of   240
     total cpu time spent up to now is       18.3 secs

     Computing kpt #:    81  of   240
     total cpu time spent up to now is       18.5 secs

     Computing kpt #:    82  of   240
     total cpu time spent up to now is       18.7 secs

     Computing kpt #:    83  of   240
     total cpu time spent up to now is       18.9 secs

     Computing kpt #:    84  of   240
     total cpu time spent up to now is       19.1 secs

     Computing kpt #:    85  of   240
     total cpu time spent up to now is       19.3 secs

     Computing kpt #:    86  of   240
     total cpu time spent up to now is       19.5 secs

     Computing kpt #:    87  of   240
     total cpu time spent up to now is       19.7 secs

     Computing kpt #:    88  of   240
     total cpu time spent up to now is       19.9 secs

     Computing kpt #:    89  of   240
     total cpu time spent up to now is       20.0 secs

     Computing kpt #:    90  of   240
     total cpu time spent up to now is       20.2 secs

     Computing kpt #:    91  of   240
     total cpu time spent up to now is       20.4 secs

     Computing kpt #:    92  of   240
     total cpu time spent up to now is       20.6 secs

     Computing kpt #:    93  of   240
     total cpu time spent up to now is       20.8 secs

     Computing kpt #:    94  of   240
     total cpu time spent up to now is       21.0 secs

     Computing kpt #:    95  of   240
     total cpu time spent up to now is       21.2 secs

     Computing kpt #:    96  of   240
     total cpu time spent up to now is       21.4 secs

     Computing kpt #:    97  of   240
     total cpu time spent up to now is       21.6 secs

     Computing kpt #:    98  of   240
     total cpu time spent up to now is       21.8 secs

     Computing kpt #:    99  of   240
     total cpu time spent up to now is       22.0 secs

     Computing kpt #:   100  of   240
     total cpu time spent up to now is       22.2 secs

     Computing kpt #:   101  of   240
     total cpu time spent up to now is       22.4 secs

     Computing kpt #:   102  of   240
     total cpu time spent up to now is       22.6 secs

     Computing kpt #:   103  of   240
     total cpu time spent up to now is       22.8 secs

     Computing kpt #:   104  of   240
     total cpu time spent up to now is       23.0 secs

     Computing kpt #:   105  of   240
     total cpu time spent up to now is       23.2 secs

     Computing kpt #:   106  of   240
     total cpu time spent up to now is       23.4 secs

     Computing kpt #:   107  of   240
     total cpu time spent up to now is       23.6 secs

     Computing kpt #:   108  of   240
     total cpu time spent up to now is       23.8 secs

     Computing kpt #:   109  of   240
     total cpu time spent up to now is       23.9 secs

     Computing kpt #:   110  of   240
     total cpu time spent up to now is       24.1 secs

     Computing kpt #:   111  of   240
     total cpu time spent up to now is       24.3 secs

     Computing kpt #:   112  of   240
     total cpu time spent up to now is       24.5 secs

     Computing kpt #:   113  of   240
     total cpu time spent up to now is       24.7 secs

     Computing kpt #:   114  of   240
     total cpu time spent up to now is       24.9 secs

     Computing kpt #:   115  of   240
     total cpu time spent up to now is       25.0 secs

     Computing kpt #:   116  of   240
     total cpu time spent up to now is       25.2 secs

     Computing kpt #:   117  of   240
     total cpu time spent up to now is       25.4 secs

     Computing kpt #:   118  of   240
     total cpu time spent up to now is       25.6 secs

     Computing kpt #:   119  of   240
     total cpu time spent up to now is       25.8 secs

     Computing kpt #:   120  of   240
     total cpu time spent up to now is       26.0 secs

     Computing kpt #:   121  of   240
     total cpu time spent up to now is       26.1 secs

     Computing kpt #:   122  of   240
     total cpu time spent up to now is       26.4 secs

     Computing kpt #:   123  of   240
     total cpu time spent up to now is       26.6 secs

     Computing kpt #:   124  of   240
     total cpu time spent up to now is       26.8 secs

     Computing kpt #:   125  of   240
     total cpu time spent up to now is       26.9 secs

     Computing kpt #:   126  of   240
     total cpu time spent up to now is       27.2 secs

     Computing kpt #:   127  of   240
     total cpu time spent up to now is       27.4 secs

     Computing kpt #:   128  of   240
     total cpu time spent up to now is       27.5 secs

     Computing kpt #:   129  of   240
     total cpu time spent up to now is       27.8 secs

     Computing kpt #:   130  of   240
     total cpu time spent up to now is       28.0 secs

     Computing kpt #:   131  of   240
     total cpu time spent up to now is       28.2 secs

     Computing kpt #:   132  of   240
     total cpu time spent up to now is       28.4 secs

     Computing kpt #:   133  of   240
     total cpu time spent up to now is       28.6 secs

     Computing kpt #:   134  of   240
     total cpu time spent up to now is       28.7 secs

     Computing kpt #:   135  of   240
     total cpu time spent up to now is       29.0 secs

     Computing kpt #:   136  of   240
     total cpu time spent up to now is       29.2 secs

     Computing kpt #:   137  of   240
     total cpu time spent up to now is       29.3 secs

     Computing kpt #:   138  of   240
     total cpu time spent up to now is       29.5 secs

     Computing kpt #:   139  of   240
     total cpu time spent up to now is       29.7 secs

     Computing kpt #:   140  of   240
     total cpu time spent up to now is       29.9 secs

     Computing kpt #:   141  of   240
     total cpu time spent up to now is       30.1 secs

     Computing kpt #:   142  of   240
     total cpu time spent up to now is       30.3 secs

     Computing kpt #:   143  of   240
     total cpu time spent up to now is       30.5 secs

     Computing kpt #:   144  of   240
     total cpu time spent up to now is       30.7 secs

     Computing kpt #:   145  of   240
     total cpu time spent up to now is       30.9 secs

     Computing kpt #:   146  of   240
     total cpu time spent up to now is       31.1 secs

     Computing kpt #:   147  of   240
     total cpu time spent up to now is       31.4 secs

     Computing kpt #:   148  of   240
     total cpu time spent up to now is       31.6 secs

     Computing kpt #:   149  of   240
     total cpu time spent up to now is       31.8 secs

     Computing kpt #:   150  of   240
     total cpu time spent up to now is       32.0 secs

     Computing kpt #:   151  of   240
     total cpu time spent up to now is       32.2 secs

     Computing kpt #:   152  of   240
     total cpu time spent up to now is       32.4 secs

     Computing kpt #:   153  of   240
     total cpu time spent up to now is       32.6 secs

     Computing kpt #:   154  of   240
     total cpu time spent up to now is       32.8 secs

     Computing kpt #:   155  of   240
     total cpu time spent up to now is       33.0 secs

     Computing kpt #:   156  of   240
     total cpu time spent up to now is       33.2 secs

     Computing kpt #:   157  of   240
     total cpu time spent up to now is       33.4 secs

     Computing kpt #:   158  of   240
     total cpu time spent up to now is       33.6 secs

     Computing kpt #:   159  of   240
     total cpu time spent up to now is       33.8 secs

     Computing kpt #:   160  of   240
     total cpu time spent up to now is       34.0 secs

     Computing kpt #:   161  of   240
     total cpu time spent up to now is       34.2 secs

     Computing kpt #:   162  of   240
     total cpu time spent up to now is       34.4 secs

     Computing kpt #:   163  of   240
     total cpu time spent up to now is       34.6 secs

     Computing kpt #:   164  of   240
     total cpu time spent up to now is       34.8 secs

     Computing kpt #:   165  of   240
     total cpu time spent up to now is       35.0 secs

     Computing kpt #:   166  of   240
     total cpu time spent up to now is       35.2 secs

     Computing kpt #:   167  of   240
     total cpu time spent up to now is       35.4 secs

     Computing kpt #:   168  of   240
     total cpu time spent up to now is       35.6 secs

     Computing kpt #:   169  of   240
     total cpu time spent up to now is       35.8 secs

     Computing kpt #:   170  of   240
     total cpu time spent up to now is       36.0 secs

     Computing kpt #:   171  of   240
     total cpu time spent up to now is       36.2 secs

     Computing kpt #:   172  of   240
     total cpu time spent up to now is       36.4 secs

     Computing kpt #:   173  of   240
     total cpu time spent up to now is       36.6 secs

     Computing kpt #:   174  of   240
     total cpu time spent up to now is       36.8 secs

     Computing kpt #:   175  of   240
     total cpu time spent up to now is       37.0 secs

     Computing kpt #:   176  of   240
     total cpu time spent up to now is       37.2 secs

     Computing kpt #:   177  of   240
     total cpu time spent up to now is       37.4 secs

     Computing kpt #:   178  of   240
     total cpu time spent up to now is       37.6 secs

     Computing kpt #:   179  of   240
     total cpu time spent up to now is       37.7 secs

     Computing kpt #:   180  of   240
     total cpu time spent up to now is       37.9 secs

     Computing kpt #:   181  of   240
     total cpu time spent up to now is       38.1 secs

     Computing kpt #:   182  of   240
     total cpu time spent up to now is       38.3 secs

     Computing kpt #:   183  of   240
     total cpu time spent up to now is       38.5 secs

     Computing kpt #:   184  of   240
     total cpu time spent up to now is       38.7 secs

     Computing kpt #:   185  of   240
     total cpu time spent up to now is       38.9 secs

     Computing kpt #:   186  of   240
     total cpu time spent up to now is       39.1 secs

     Computing kpt #:   187  of   240
     total cpu time spent up to now is       39.3 secs

     Computing kpt #:   188  of   240
     total cpu time spent up to now is       39.5 secs

     Computing kpt #:   189  of   240
     total cpu time spent up to now is       39.7 secs

     Computing kpt #:   190  of   240
     total cpu time spent up to now is       39.9 secs

     Computing kpt #:   191  of   240
     total cpu time spent up to now is       40.1 secs

     Computing kpt #:   192  of   240
     total cpu time spent up to now is       40.2 secs

     Computing kpt #:   193  of   240
     total cpu time spent up to now is       40.4 secs

     Computing kpt #:   194  of   240
     total cpu time spent up to now is       40.6 secs

     Computing kpt #:   195  of   240
     total cpu time spent up to now is       40.8 secs

     Computing kpt #:   196  of   240
     total cpu time spent up to now is       41.0 secs

     Computing kpt #:   197  of   240
     total cpu time spent up to now is       41.2 secs

     Computing kpt #:   198  of   240
     total cpu time spent up to now is       41.4 secs

     Computing kpt #:   199  of   240
     total cpu time spent up to now is       41.6 secs

     Computing kpt #:   200  of   240
     total cpu time spent up to now is       41.7 secs

     Computing kpt #:   201  of   240
     total cpu time spent up to now is       41.9 secs

     Computing kpt #:   202  of   240
     total cpu time spent up to now is       42.1 secs

     Computing kpt #:   203  of   240
     total cpu time spent up to now is       42.2 secs

     Computing kpt #:   204  of   240
     total cpu time spent up to now is       42.4 secs

     Computing kpt #:   205  of   240
     total cpu time spent up to now is       42.6 secs

     Computing kpt #:   206  of   240
     total cpu time spent up to now is       42.8 secs

     Computing kpt #:   207  of   240
     total cpu time spent up to now is       43.0 secs

     Computing kpt #:   208  of   240
     total cpu time spent up to now is       43.2 secs

     Computing kpt #:   209  of   240
     total cpu time spent up to now is       43.4 secs

     Computing kpt #:   210  of   240
     total cpu time spent up to now is       43.6 secs

     Computing kpt #:   211  of   240
     total cpu time spent up to now is       43.8 secs

     Computing kpt #:   212  of   240
     total cpu time spent up to now is       43.9 secs

     Computing kpt #:   213  of   240
     total cpu time spent up to now is       44.1 secs

     Computing kpt #:   214  of   240
     total cpu time spent up to now is       44.4 secs

     Computing kpt #:   215  of   240
     total cpu time spent up to now is       44.5 secs

     Computing kpt #:   216  of   240
     total cpu time spent up to now is       44.7 secs

     Computing kpt #:   217  of   240
     total cpu time spent up to now is       44.9 secs

     Computing kpt #:   218  of   240
     total cpu time spent up to now is       45.1 secs

     Computing kpt #:   219  of   240
     total cpu time spent up to now is       45.4 secs

     Computing kpt #:   220  of   240
     total cpu time spent up to now is       45.6 secs

     Computing kpt #:   221  of   240
     total cpu time spent up to now is       45.8 secs

     Computing kpt #:   222  of   240
     total cpu time spent up to now is       46.0 secs

     Computing kpt #:   223  of   240
     total cpu time spent up to now is       46.2 secs

     Computing kpt #:   224  of   240
     total cpu time spent up to now is       46.4 secs

     Computing kpt #:   225  of   240
     total cpu time spent up to now is       46.6 secs

     Computing kpt #:   226  of   240
     total cpu time spent up to now is       46.8 secs

     Computing kpt #:   227  of   240
     total cpu time spent up to now is       47.0 secs

     Computing kpt #:   228  of   240
     total cpu time spent up to now is       47.2 secs

     Computing kpt #:   229  of   240
     total cpu time spent up to now is       47.3 secs

     Computing kpt #:   230  of   240
     total cpu time spent up to now is       47.5 secs

     Computing kpt #:   231  of   240
     total cpu time spent up to now is       47.7 secs

     Computing kpt #:   232  of   240
     total cpu time spent up to now is       47.9 secs

     Computing kpt #:   233  of   240
     total cpu time spent up to now is       48.1 secs

     Computing kpt #:   234  of   240
     total cpu time spent up to now is       48.3 secs

     Computing kpt #:   235  of   240
     total cpu time spent up to now is       48.5 secs

     Computing kpt #:   236  of   240
     total cpu time spent up to now is       48.7 secs

     Computing kpt #:   237  of   240
     total cpu time spent up to now is       48.9 secs

     Computing kpt #:   238  of   240
     total cpu time spent up to now is       49.0 secs

     Computing kpt #:   239  of   240
     total cpu time spent up to now is       49.2 secs

     Computing kpt #:   240  of   240
     total cpu time spent up to now is       49.4 secs

     ethr =  6.25E-13,  avg # of iterations = 25.2

     total cpu time spent up to now is       50.5 secs

     End of band structure calculation

 ------ SPIN UP ------------


          k = 0.0000 0.0000 0.0000 (   321 PWs)   bands (ev):

   -70.0297 -35.8232 -35.8232 -35.8232   9.6238  15.7794  15.7794  15.7794
    17.0487  17.0487  42.4527  42.4527  42.4527  47.9678  47.9678  50.1044
    50.1044  50.1044  50.7531  50.7531

     occupation numbers 
     1.0000   1.0000   1.0000   1.0000   1.0000   1.0000   1.0000   1.0000
     1.0000   1.0000   0.0000   0.0000   0.0000   0.0000   0.0000   0.0000
     0.0000   0.0000   0.0000   0.0000

          k = 0.0000-0.0667 0.0667 (   325 PWs)   bands (ev):

   -70.0264 -35.8410 -35.8291 -35.8232   9.8077  15.7291  15.7752  15.8777
    16.9985  17.0527  41.3982  42.2272  42.3651  47.2176  47.9827  47.9962
    48.8773  50.5432  52.1940  52.9439

     occupation numbers 
     1.0000   1.0000   1.0000   1.0000   1.0000   1.0000   1.0000   1.0000
     1.0000   1.0000   0.0000   0.0000   0.0000   0.0000   0.0000   0.0000
     0.0000   0.0000   0.0000   0.0000

          k = 0.0000-0.1333 0.1333 (   333 PWs)   bands (ev):

   -70.0170 -35.8913 -35.8459 -35.8231  10.3424  15.5891  15.7430  16.1624
    16.8956  17.0660  38.9897  41.3739  42.1549  45.6683  46.5852  46.8579
    50.0718  51.7941  54.7975  55.4852

     occupation numbers 
     1.0000   1.0000   1.0000   1.0000   1.0000   1.0000   1.0000   1.0000
     1.0000   1.0000   0.0000   0.0000   0.0000   0.0000   0.0000   0.0000
     0.0000   0.0000   0.0000   0.0000

          k = 0.0000-0.2000 0.2000 (   342 PWs)   bands (ev):

   -70.0031 -35.9650 -35.8705 -35.8230  11.1660  15.3876  15.6658  16.6014
    16.8443  17.0909  36.0468  40.0225  41.9149  43.4986  45.6873  47.5513
    51.1774  53.7303  57.7537  58.0962

     occupation numbers 
     1.0000   1.0000   1.0000   1.0000   1.0000   1.0000   1.0000   1.0000
     1.0000   1.0045   0.0000   0.0000   0.0000   0.0000   0.0000   0.0000
     0.0000   0.0000   0.0000   0.0000

          k = 0.0000-0.2667 0.2667 (   336 PWs)   bands (ev):

   -69.9871 -36.0489 -35.8987 -35.8230  12.1180  15.1630  15.6727  16.8929
    17.1278  17.1390  32.9794  38.6236  41.5529  41.7039  45.2369  48.9766
    51.7920  56.2418  60.7814  60.8929

     occupation numbers 
     1.0000   1.0000   1.0000   1.0000   1.0000   1.0000   1.0000   1.0000
     1.0000   1.0187   0.0000   0.0000   0.0000   0.0000   0.0000   0.0000
     0.0000   0.0000   0.0000   0.0000

          k = 0.0000-0.3333 0.3333 (   330 PWs)   bands (ev):

   -69.9718 -36.1285 -35.9256 -35.8229  12.8526  14.9545  16.1161  17.0117
    17.1716  17.6933  30.0260  37.4398  39.9292  41.5442  45.0878  50.9024
    51.9350  59.2383  63.5293  63.6283

     occupation numbers 
     1.0000   1.0000   1.0000   1.0000   1.0000   1.0000   1.0000   1.0000
     1.0000   0.8246   0.0000   0.0000   0.0000   0.0000   0.0000   0.0000
     0.0000   0.0000   0.0000   0.0000

          k = 0.0000-0.4000 0.4000 (   324 PWs)   bands (ev):

   -69.9599 -36.1903 -35.9465 -35.8229  13.1290  14.7957  16.9252  17.2120
    17.3851  18.1600  27.4216  36.5958  38.7434  41.4396  45.1054  51.8102
    53.1984  61.7411  62.5970  64.1310

     occupation numbers 
     1.0000   1.0000   1.0000   1.0000   1.0000   1.0000   1.0000   1.0000
     1.0148   0.1074   0.0000   0.0000   0.0000   0.0000   0.0000   0.0000
     0.0000   0.0000   0.0000   0.0000

          k = 0.0000-0.4667 0.4667 (   328 PWs)   bands (ev):

   -69.9533 -36.2240 -35.9580 -35.8228  13.1681  14.7102  17.0840  17.2365
    18.3775  18.4301  25.6487  36.1579  38.1118  41.3883  45.1600  51.6627
    55.7098  58.8748  64.1093  65.8343

     occupation numbers 
     1.0000   1.0000   1.0000   1.0000   1.0000   1.0000   1.0000   1.0000
     0.3140   0.0000   0.0000   0.0000   0.0000   0.0000   0.0000   0.0000
     0.0000   0.0000   0.0000   0.0000

          k =-0.0667-0.0667 0.1333 (   335 PWs)   bands (ev):

   -70.0200 -35.8758 -35.8353 -35.8276  10.1674  15.6646  15.7120  16.0845
    16.9121  17.0700  40.0011  40.9566  42.6857  45.5915  46.6824  48.1892
    49.9116  50.5226  54.3094  54.5296

     occupation numbers 
     1.0000   1.0000   1.0000   1.0000   1.0000   1.0000   1.0000   1.0000
     1.0000   1.0000   0.0000   0.0000   0.0000   0.0000   0.0000   0.0000
     0.0000   0.0000   0.0000   0.0000

          k =-0.0667-0.1333 0.2000 (   337 PWs)   bands (ev):

   -70.0084 -35.9368 -35.8552 -35.8293  10.8515  15.4985  15.6308  16.4667
    16.8166  17.1062  37.5507  39.5241  42.6248  43.5207  46.7298  47.5518
    51.3414  51.8608  56.2740  56.9637

     occupation numbers 
     1.0000   1.0000   1.0000   1.0000   1.0000   1.0000   1.0000   1.0000
     1.0000   1.0029   0.0000   0.0000   0.0000   0.0000   0.0000   0.0000
     0.0000   0.0000   0.0000   0.0000

          k =-0.0667-0.2000 0.2667 (   335 PWs)   bands (ev):

   -69.9935 -36.0132 -35.8835 -35.8297  11.7614  15.2806  15.5456  16.8056
    16.9868  17.1551  34.5786  38.2161  41.3731  42.7048  46.6990  47.7098
    52.4709  54.1180  58.3931  59.8919

     occupation numbers 
     1.0000   1.0000   1.0000   1.0000   1.0000   1.0000   1.0000   1.0000
     1.0000   1.0065   0.0000   0.0000   0.0000   0.0000   0.0000   0.0000
     0.0000   0.0000   0.0000   0.0000

          k =-0.0667-0.2667 0.3333 (   332 PWs)   bands (ev):

   -69.9778 -36.0922 -35.9137 -35.8298  12.6517  15.0616  15.6627  16.8974
    17.2048  17.5974  31.5545  37.0568  39.8072  42.4376  46.2780  48.9960
    53.1473  56.9249  60.7663  62.8580

     occupation numbers 
     1.0000   1.0000   1.0000   1.0000   1.0000   1.0000   1.0000   1.0000
     1.0002   0.9300   0.0000   0.0000   0.0000   0.0000   0.0000   0.0000
     0.0000   0.0000   0.0000   0.0000

          k =-0.0667-0.3333 0.4000 (   332 PWs)   bands (ev):

   -69.9642 -36.1603 -35.9400 -35.8299  13.1447  14.8793  16.2452  17.0377
    17.3109  18.2515  28.7321  36.1399  38.5437  42.2517  46.1118  50.2488
    53.8582  60.1490  61.7871  64.1287

     occupation numbers 
     1.0000   1.0000   1.0000   1.0000   1.0000   1.0000   1.0000   1.0000
     1.0147   0.1456   0.0000   0.0000   0.0000   0.0000   0.0000   0.0000
     0.0000   0.0000   0.0000   0.0000

          k =-0.0667-0.4000 0.4667 (   328 PWs)   bands (ev):

   -69.9549 -36.2063 -35.9578 -35.8299  13.2548  14.7593  16.8166  17.1044
    17.6712  18.9894  26.4251  35.5500  37.7178  42.1406  46.1020  50.8743
    55.3143  59.8694  63.6414  64.5686

     occupation numbers 
     1.0000   1.0000   1.0000   1.0000   1.0000   1.0000   1.0000   1.0000
     1.0426  -0.0209   0.0000   0.0000   0.0000   0.0000   0.0000   0.0000
     0.0000   0.0000   0.0000   0.0000

          k =-0.0667 0.5333-0.4667 (   330 PWs)   bands (ev):

   -69.9517 -36.2225 -35.9641 -35.8299  13.2589  14.7175  16.9857  17.0827
    17.9173  19.4787  25.3959  35.3459  37.4295  42.1037  46.1188  50.9942
    57.3849  57.5653  64.5046  66.3098

     occupation numbers 
     1.0000   1.0000   1.0000   1.0000   1.0000   1.0000   1.0000   1.0000
     0.8743   0.0000   0.0000   0.0000   0.0000   0.0000   0.0000   0.0000
     0.0000   0.0000   0.0000   0.0000

          k =-0.1333-0.1333 0.2667 (   339 PWs)   bands (ev):

   -69.9957 -35.9994 -35.8721 -35.8392  11.6369  15.3921  15.4171  16.7515
    16.9602  17.1847  35.8857  37.0252  41.4768  43.0742  46.7071  48.8357
    52.0887  53.2567  57.1043  59.6642

     occupation numbers 
     1.0000   1.0000   1.0000   1.0000   1.0000   1.0000   1.0000   1.0000
     1.0000   1.0021   0.0000   0.0000   0.0000   0.0000   0.0000   0.0000
     0.0000   0.0000   0.0000   0.0000

          k =-0.1333-0.2000 0.3333 (   330 PWs)   bands (ev):

   -69.9811 -36.0670 -35.9023 -35.8437  12.5518  15.1640  15.3419  16.7793
    17.2366  17.6362  33.2523  35.4061  39.8870  43.1469  47.1491  49.2382
    53.7237  54.9653  58.4742  62.4785

     occupation numbers 
     1.0000   1.0000   1.0000   1.0000   1.0000   1.0000   1.0000   1.0000
     1.0003   0.9188   0.0000   0.0000   0.0000   0.0000   0.0000   0.0000
     0.0000   0.0000   0.0000   0.0000

          k =-0.1333-0.2667 0.4000 (   329 PWs)   bands (ev):

   -69.9671 -36.1292 -35.9356 -35.8455  13.2631  14.9646  15.5325  16.8939
    17.3193  18.4363  30.3340  34.3550  38.6066  43.1001  47.7706  49.3628
    55.2029  57.1500  60.0196  63.7579

     occupation numbers 
     1.0000   1.0000   1.0000   1.0000   1.0000   1.0000   1.0000   1.0000
     1.0096   0.0890   0.0000   0.0000   0.0000   0.0000   0.0000   0.0000
     0.0000   0.0000   0.0000   0.0000

          k =-0.1333-0.3333 0.4667 (   328 PWs)   bands (ev):

   -69.9562 -36.1766 -35.9630 -35.8463  13.5033  14.8334  16.0169  17.0193
    17.4686  19.4249  27.6760  33.6189  37.6904  43.0443  48.2540  49.5783
    55.9335  59.9685  60.4198  64.7728

     occupation numbers 
     1.0000   1.0000   1.0000   1.0000   1.0000   1.0000   1.0000   1.0000
     1.0251  -0.0226   0.0000   0.0000   0.0000   0.0000   0.0000   0.0000
     0.0000   0.0000   0.0000   0.0000

          k =-0.1333 0.6000-0.4667 (   326 PWs)   bands (ev):

   -69.9502 -36.2021 -35.9784 -35.8467  13.5158  14.7666  16.3494  17.0615
    17.6674  20.4338  25.7663  33.2293  37.2096  43.0131  48.5396  49.6934
    56.5632  59.3100  63.9538  65.3636

     occupation numbers 
     1.0000   1.0000   1.0000   1.0000   1.0000   1.0000   1.0000   1.0000
     1.0299  -0.0064   0.0000   0.0000   0.0000   0.0000   0.0000   0.0000
     0.0000   0.0000   0.0000   0.0000

          k =-0.2000-0.2000 0.4000 (   333 PWs)   bands (ev):

   -69.9682 -36.1153 -35.9336 -35.8543  13.3463  14.9705  15.2799  16.8246
    17.3233  18.5085  31.8547  32.6763  38.7033  43.5253  47.1953  51.4602
    53.8755  57.4302  58.3653  63.6442

     occupation numbers 
     1.0000   1.0000   1.0000   1.0000   1.0000   1.0000   1.0000   1.0000
     1.0000   0.0693   0.0000   0.0000   0.0000   0.0000   0.0000   0.0000
     0.0000   0.0000   0.0000   0.0000

          k =-0.2000-0.2667 0.4667 (   328 PWs)   bands (ev):

   -69.9569 -36.1511 -35.9708 -35.8597  13.8150  14.8324  15.4390  16.9390
    17.4066  19.6460  29.3108  31.4762  37.8182  43.7632  47.5596  52.1134
    55.5138  57.9481  59.8045  64.2678

     occupation numbers 
     1.0000   1.0000   1.0000   1.0000   1.0000   1.0000   1.0000   1.0000
     1.0047  -0.0245   0.0000   0.0000   0.0000   0.0000   0.0000   0.0000
     0.0000   0.0000   0.0000   0.0000

          k =-0.2000 0.6667-0.4667 (   327 PWs)   bands (ev):

   -69.9492 -36.1719 -36.0006 -35.8621  13.8927  14.7963  15.6944  17.0502
    17.5134  21.0153  26.8474  30.8878  37.2606  43.8860  48.0726  51.8614
    56.0337  59.7414  61.5158  65.6499

     occupation numbers 
     1.0000   1.0000   1.0000   1.0000   1.0000   1.0000   1.0000   1.0000
     1.0114  -0.0031   0.0000   0.0000   0.0000   0.0000   0.0000   0.0000
     0.0000   0.0000   0.0000   0.0000

          k =-0.2000 0.6000-0.4000 (   322 PWs)   bands (ev):

   -69.9465 -36.1784 -36.0121 -35.8628  13.8797  14.7898  15.8015  17.0872
    17.5775  21.9201  25.5633  30.6875  37.0695  43.9235  48.3440  51.6605
    55.8740  61.2120  63.6788  64.4068

     occupation numbers 
     1.0000   1.0000   1.0000   1.0000   1.0000   1.0000   1.0000   1.0000
     1.0152   0.0000   0.0000   0.0000   0.0000   0.0000   0.0000   0.0000
     0.0000   0.0000   0.0000   0.0000

          k =-0.2667 0.7333-0.4667 (   328 PWs)   bands (ev):

   -69.9489 -36.1547 -36.0147 -35.8679  14.1634  14.7434  15.3930  17.0501
    17.4504  21.1942  28.1594  29.1545  37.2988  44.4238  47.2816  54.6178
    55.3605  57.5731  62.0982  65.3284

     occupation numbers 
     1.0000   1.0000   1.0000   1.0000   1.0000   1.0000   1.0000   1.0000
     1.0000  -0.0020   0.0000   0.0000   0.0000   0.0000   0.0000   0.0000
     0.0000   0.0000   0.0000   0.0000

          k =-0.2667 0.6667-0.4000 (   324 PWs)   bands (ev):

   -69.9445 -36.1458 -36.0506 -35.8714  14.2483  14.8005  15.3388  17.1648
    17.4564  22.8868  26.1348  28.4863  37.0357  44.8938  47.1200  54.0013
    56.4373  59.7754  63.4280  64.3861

     occupation numbers 
     1.0000   1.0000   1.0000   1.0000   1.0000   1.0000   1.0000   1.0000
     1.0000   0.0000   0.0000   0.0000   0.0000   0.0000   0.0000   0.0000
     0.0000   0.0000   0.0000   0.0000

          k =-0.3333 0.6667-0.3333 (   321 PWs)   bands (ev):

   -69.9428 -36.1026 -36.1026 -35.8742  14.4012  14.9915  14.9915  17.3233
[...]

   -67.1974 -33.4874 -33.2687 -33.2195  15.3704  16.3261  16.3967  19.8657
    19.9836  22.4917  30.4876  31.0958  33.1417  48.6448  52.1929  53.3163
    55.6480  58.3139  59.1641  64.4364

     occupation numbers 
     1.0000   1.0000   1.0000   1.0000   1.0000   1.0000   1.0000   0.0000
     0.0000   0.0000   0.0000   0.0000   0.0000   0.0000   0.0000   0.0000
     0.0000   0.0000   0.0000   0.0000

          k = 0.5333-0.5333 0.2667 (   330 PWs)   bands (ev):

   -67.1915 -33.5035 -33.3134 -33.1997  15.3625  16.2618  17.0513  19.8551
    20.0487  23.4002  27.2136  32.1657  33.1776  47.4958  52.4078  53.3313
    55.8708  60.5189  63.2262  63.3890

     occupation numbers 
     1.0000   1.0000   1.0000   1.0000   1.0000   1.0000   1.0000   0.0000
     0.0000   0.0000   0.0000   0.0000   0.0000   0.0000   0.0000   0.0000
     0.0000   0.0000   0.0000   0.0000

          k = 0.5333-0.6000 0.3333 (   333 PWs)   bands (ev):

   -67.1915 -33.4751 -33.3161 -33.2282  15.7274  16.2484  16.5745  19.9168
    20.0391  23.7671  28.3526  30.3523  32.5574  49.3289  52.6248  54.7443
    55.9207  60.3236  61.5968  62.4377

     occupation numbers 
     1.0000   1.0000   1.0000   1.0000   1.0000   1.0000   1.0000   0.0000
     0.0000   0.0000   0.0000   0.0000   0.0000   0.0000   0.0000   0.0000
     0.0000   0.0000   0.0000   0.0000

          k = 0.4667-0.5333 0.3333 (   326 PWs)   bands (ev):

   -67.1895 -33.4633 -33.3410 -33.2305  15.7526  16.2232  16.7569  19.9390
    20.0552  24.7192  27.0121  30.1615  32.3739  49.4727  52.8935  54.7868
    57.3680  59.4078  63.5828  63.6103

     occupation numbers 
     1.0000   1.0000   1.0000   1.0000   1.0000   1.0000   1.0000   0.0000
     0.0000   0.0000   0.0000   0.0000   0.0000   0.0000   0.0000   0.0000
     0.0000   0.0000   0.0000   0.0000

          k = 0.4667-0.6000 0.4000 (   324 PWs)   bands (ev):

   -67.1887 -33.4324 -33.3665 -33.2424  15.9357  16.3152  16.4990  19.9846
    20.0387  25.3884  27.3856  28.7055  32.2238  50.7163  52.0253  56.7337
    57.4679  60.0489  60.9379  63.2642

     occupation numbers 
     1.0000   1.0000   1.0000   1.0000   1.0000   1.0000   1.0000   0.0000
     0.0000   0.0000   0.0000   0.0000   0.0000   0.0000   0.0000   0.0000
     0.0000   0.0000   0.0000   0.0000

          k = 0.0000 0.0000 0.4000 (   329 PWs)   bands (ev):

   -67.2232 -33.3068 -33.2350 -33.2350  12.7244  17.8808  17.8808  18.0507
    18.6637  20.3279  36.8811  37.9261  37.9261  39.6292  49.7180  49.7180
    51.5597  56.8422  60.6512  61.2857

     occupation numbers 
     1.0000   1.0000   1.0000   1.0000   1.0000   1.0000   1.0000   0.0028
     0.0000   0.0000   0.0000   0.0000   0.0000   0.0000   0.0000   0.0000
     0.0000   0.0000   0.0000   0.0000

          k = 0.0000-0.0667 0.4667 (   329 PWs)   bands (ev):

   -67.2073 -33.3688 -33.2679 -33.2484  13.6190  17.3993  17.8619  18.2358
    19.1147  20.5264  34.7518  36.5022  37.0691  39.5596  49.5651  50.6124
    53.5110  55.9688  59.9132  63.7518

     occupation numbers 
     1.0000   1.0000   1.0000   1.0000   1.0000   1.0000   0.9968   0.0002
     0.0000   0.0000   0.0000   0.0000   0.0000   0.0000   0.0000   0.0000
     0.0000   0.0000   0.0000   0.0000

          k = 0.0000-0.1333 0.5333 (   328 PWs)   bands (ev):

   -67.1920 -33.4417 -33.2992 -33.2469  14.4831  16.8918  17.7264  18.5898
    19.7344  20.9331  31.8876  35.2487  36.5225  40.5101  48.8418  50.6073
    53.9498  56.5874  62.0704  65.5012

     occupation numbers 
     1.0000   1.0000   1.0000   1.0000   1.0000   1.0000   0.9928   0.0000
     0.0000   0.0000   0.0000   0.0000   0.0000   0.0000   0.0000   0.0000
     0.0000   0.0000   0.0000   0.0000

          k = 0.0000-0.2000 0.6000 (   325 PWs)   bands (ev):

   -67.1800 -33.5004 -33.3235 -33.2435  15.0934  16.5994  17.6010  18.8003
    20.3014  21.7990  29.2443  34.2780  36.0967  41.7820  48.3196  49.4664
    52.8343  60.0020  65.3054  67.0612

     occupation numbers 
     1.0000   1.0000   1.0000   1.0000   1.0000   1.0000   1.0030   0.0000
     0.0000   0.0000   0.0000   0.0000   0.0000   0.0000   0.0000   0.0000
     0.0000   0.0000   0.0000   0.0000

          k = 0.0000-0.2667 0.6667 (   326 PWs)   bands (ev):

   -67.1735 -33.5327 -33.3368 -33.2414  15.3333  16.5453  17.5299  18.8442
    20.6443  22.9270  27.2452  33.7356  35.8698  42.9110  48.0547  48.0824
    52.5522  63.5393  67.8097  68.1870

     occupation numbers 
     1.0000   1.0000   1.0000   1.0000   1.0000   1.0000   1.0148   0.0000
     0.0000   0.0000   0.0000   0.0000   0.0000   0.0000   0.0000   0.0000
     0.0000   0.0000   0.0000   0.0000

          k =-0.0667-0.0667 0.5333 (   331 PWs)   bands (ev):

   -67.1921 -33.4156 -33.3048 -33.2653  14.4202  16.9317  17.9609  18.4225
    19.5265  20.9109  33.5003  33.8925  37.4246  39.0076  49.3323  52.8799
    53.1265  54.8061  61.1621  66.3981

     occupation numbers 
     1.0000   1.0000   1.0000   1.0000   1.0000   1.0000   0.8883  -0.0001
     0.0000   0.0000   0.0000   0.0000   0.0000   0.0000   0.0000   0.0000
     0.0000   0.0000   0.0000   0.0000

          k =-0.0667-0.1333 0.6000 (   327 PWs)   bands (ev):

   -67.1789 -33.4676 -33.3387 -33.2664  15.0881  16.4975  17.8669  18.7500
    20.0000  21.7349  30.8545  32.7408  37.2503  39.7628  48.4796  50.9150
    53.8841  57.2007  63.9242  68.3616

     occupation numbers 
     1.0000   1.0000   1.0000   1.0000   1.0000   1.0000   0.8970   0.0000
     0.0000   0.0000   0.0000   0.0000   0.0000   0.0000   0.0000   0.0000
     0.0000   0.0000   0.0000   0.0000

          k =-0.0667-0.2000 0.6667 (   329 PWs)   bands (ev):

   -67.1699 -33.5054 -33.3615 -33.2645  15.4784  16.2702  17.7365  18.9352
    20.3892  23.0464  28.3595  32.0481  36.9285  41.0201  47.1622  49.7014
    53.9589  60.6570  67.2888  68.8298

     occupation numbers 
     1.0000   1.0000   1.0000   1.0000   1.0000   1.0000   0.9412   0.0000
     0.0000   0.0000   0.0000   0.0000   0.0000   0.0000   0.0000   0.0000
     0.0000   0.0000   0.0000   0.0000

          k =-0.0667 0.7333-0.2667 (   324 PWs)   bands (ev):

   -67.1668 -33.5191 -33.3695 -33.2635  15.5722  16.2405  17.6760  18.9783
    20.5512  24.0503  26.9693  31.7950  36.8070  41.7403  46.3187  49.4053
    53.9522  63.5029  65.8101  70.0744

     occupation numbers 
     1.0000   1.0000   1.0000   1.0000   1.0000   1.0000   0.9590   0.0000
     0.0000   0.0000   0.0000   0.0000   0.0000   0.0000   0.0000   0.0000
     0.0000   0.0000   0.0000   0.0000

          k =-0.1333-0.1333 0.6667 (   324 PWs)   bands (ev):

   -67.1687 -33.4856 -33.3832 -33.2699  15.5538  16.1561  17.7475  19.1366
    20.1620  23.0810  29.8146  30.2854  38.1840  39.6105  46.8563  49.9688
    56.9746  57.3201  66.8249  69.0860

     occupation numbers 
     1.0000   1.0000   1.0000   1.0000   1.0000   1.0000   0.9160   0.0000
     0.0000   0.0000   0.0000   0.0000   0.0000   0.0000   0.0000   0.0000
     0.0000   0.0000   0.0000   0.0000

          k =-0.1333 0.8000-0.2667 (   325 PWs)   bands (ev):

   -67.1631 -33.4922 -33.4128 -33.2697  15.7838  16.0169  17.5831  19.4166
    20.2544  24.7420  27.6658  29.6497  38.3385  40.3803  45.2880  49.6015
    57.0982  60.7275  65.0647  70.4917

     occupation numbers 
     1.0000   1.0000   1.0000   1.0000   1.0000   1.0000   0.9611   0.0000
     0.0000   0.0000   0.0000   0.0000   0.0000   0.0000   0.0000   0.0000
     0.0000   0.0000   0.0000   0.0000

          k =-0.2000 0.8000-0.2000 (   324 PWs)   bands (ev):

   -67.1607 -33.4598 -33.4598 -33.2703  15.9203  15.9203  17.4717  19.9155
    19.9155  26.6019  26.6019  28.3663  39.5967  39.5967  44.4196  49.5315
    59.6461  61.5385  61.5385  72.8303

     occupation numbers 
     1.0000   1.0000   1.0000   1.0000   1.0000   1.0000   0.9782   0.0000
     0.0000   0.0000   0.0000   0.0000   0.0000   0.0000   0.0000   0.0000
     0.0000   0.0000   0.0000   0.0000

          k = 0.6000-0.6000 0.4000 (   333 PWs)   bands (ev):

   -67.1921 -33.4659 -33.2756 -33.2756  16.0173  16.2311  16.2311  20.0018
    20.0018  23.8003  29.8549  29.8549  31.0123  51.0822  53.7489  53.7489
    56.2202  59.7536  59.7536  64.2764

     occupation numbers 
     1.0000   1.0000   1.0000   1.0000   1.0000   1.0000   1.0000   0.0000
     0.0000   0.0000   0.0000   0.0000   0.0000   0.0000   0.0000   0.0000
     0.0000   0.0000   0.0000   0.0000

          k = 0.5333-0.5333 0.4000 (   328 PWs)   bands (ev):

   -67.1892 -33.4297 -33.3309 -33.2794  16.0749  16.1896  16.4605  20.0221
    20.0637  25.3199  27.8264  29.5333  30.4349  52.1278  54.7760  55.4708
    56.1150  59.2081  60.5863  63.9051

     occupation numbers 
     1.0000   1.0000   1.0000   1.0000   1.0000   1.0000   1.0000   0.0000
     0.0000   0.0000   0.0000   0.0000   0.0000   0.0000   0.0000   0.0000
     0.0000   0.0000   0.0000   0.0000

          k = 0.4667-0.5333 0.4667 (   330 PWs)   bands (ev):

   -67.1884 -33.3726 -33.3726 -33.3021  16.1369  16.3263  16.3263  20.0655
    20.0655  27.0239  27.0239  28.3866  30.0315  54.2294  54.2294  57.1055
    57.6842  57.6842  57.9799  64.2848

     occupation numbers 
     1.0000   1.0000   1.0000   1.0000   1.0000   1.0000   1.0000   0.0000
     0.0000   0.0000   0.0000   0.0000   0.0000   0.0000   0.0000   0.0000
     0.0000   0.0000   0.0000   0.0000

          k = 0.0000 0.0000 0.5333 (   325 PWs)   bands (ev):

   -67.1923 -33.3797 -33.3017 -33.3017  14.3321  17.0584  18.2486  18.2486
    19.2247  20.8592  34.9372  34.9372  35.8298  37.8053  52.2835  52.6563
    52.6563  53.0937  59.8267  67.9819

     occupation numbers 
     1.0000   1.0000   1.0000   1.0000   1.0000   1.0000   0.4164   0.0000
     0.0000   0.0000   0.0000   0.0000   0.0000   0.0000   0.0000   0.0000
     0.0000   0.0000   0.0000   0.0000

          k = 0.0000-0.0667 0.6000 (   327 PWs)   bands (ev):

   -67.1780 -33.4272 -33.3339 -33.3150  14.9500  16.5586  18.3502  18.5687
    19.6777  21.4846  32.4502  33.5821  35.9228  37.9539  50.2090  51.5524
    53.9185  55.7297  61.3827  69.9805

     occupation numbers 
     1.0000   1.0000   1.0000   1.0000   1.0000   1.0000   0.1816   0.0000
     0.0000   0.0000   0.0000   0.0000   0.0000   0.0000   0.0000   0.0000
     0.0000   0.0000   0.0000   0.0000

          k = 0.0000-0.1333 0.6667 (   325 PWs)   bands (ev):

   -67.1668 -33.4775 -33.3590 -33.3119  15.3684  16.1668  18.3114  18.8053
    20.2242  22.6421  29.7714  32.5388  35.8081  39.0508  47.6826  50.9720
    54.3213  59.1303  64.3394  70.8880

     occupation numbers 
     1.0000   1.0000   1.0000   1.0000   1.0000   1.0000   0.2504   0.0000
     0.0000   0.0000   0.0000   0.0000   0.0000   0.0000   0.0000   0.0000
     0.0000   0.0000   0.0000   0.0000

          k = 0.0000-0.2000 0.7333 (   328 PWs)   bands (ev):

   -67.1606 -33.5063 -33.3727 -33.3087  15.5581  15.9764  18.2726  18.8846
    20.5783  24.1502  27.5232  31.9547  35.6967  40.1465  45.9338  50.6772
    54.3967  62.4809  67.5975  67.8687

     occupation numbers 
     1.0000   1.0000   1.0000   1.0000   1.0000   1.0000   0.3118   0.0000
     0.0000   0.0000   0.0000   0.0000   0.0000   0.0000   0.0000   0.0000
     0.0000   0.0000   0.0000   0.0000

          k =-0.0667-0.0667 0.6667 (   327 PWs)   bands (ev):

   -67.1656 -33.4554 -33.3712 -33.3277  15.3183  16.1447  18.4553  18.9551
    20.0102  22.5113  31.2785  31.4694  36.2239  37.7939  47.5360  51.6747
    56.4046  56.7343  63.2919  71.6343

     occupation numbers 
     1.0000   1.0000   1.0000   1.0000   1.0000   1.0000   0.0861   0.0000
     0.0000   0.0000   0.0000   0.0000   0.0000   0.0000   0.0000   0.0000
     0.0000   0.0000   0.0000   0.0000

          k =-0.0667-0.1333 0.7333 (   329 PWs)   bands (ev):

   -67.1572 -33.4821 -33.3984 -33.3267  15.5305  15.8486  18.4021  19.2684
    20.3431  24.0538  28.8732  30.6149  36.3881  38.5556  45.3358  51.4035
    56.7498  59.9386  66.2263  68.6256

     occupation numbers 
     1.0000   1.0000   1.0000   1.0000   1.0000   1.0000   0.1330   0.0000
     0.0000   0.0000   0.0000   0.0000   0.0000   0.0000   0.0000   0.0000
     0.0000   0.0000   0.0000   0.0000

          k =-0.0667 0.8000-0.2000 (   329 PWs)   bands (ev):

   -67.1543 -33.4926 -33.4078 -33.3255  15.6045  15.7393  18.3713  19.3622
    20.4930  25.4132  27.1983  30.3278  36.3721  39.1530  44.3433  51.2938
    56.7528  62.5386  65.3538  69.7048

     occupation numbers 
     1.0000   1.0000   1.0000   1.0000   1.0000   1.0000   0.1579   0.0000
     0.0000   0.0000   0.0000   0.0000   0.0000   0.0000   0.0000   0.0000
     0.0000   0.0000   0.0000   0.0000

          k =-0.1333 0.8667-0.2000 (   332 PWs)   bands (ev):

   -67.1520 -33.4734 -33.4386 -33.3273  15.6114  15.6627  18.3331  19.8111
    20.2591  25.8630  27.9754  28.7324  37.3559  38.2376  43.7410  51.3549
    59.3670  60.7967  64.3806  70.0682

     occupation numbers 
     1.0000   1.0000   1.0000   1.0000   1.0000   1.0000   0.1742   0.0000
     0.0000   0.0000   0.0000   0.0000   0.0000   0.0000   0.0000   0.0000
     0.0000   0.0000   0.0000   0.0000

          k = 0.0000 0.0000 0.6667 (   334 PWs)   bands (ev):

   -67.1645 -33.4259 -33.3670 -33.3670  15.2318  16.1457  18.8872  18.8872
    19.7752  22.3152  32.1324  32.1324  35.2103  36.9009  47.4611  53.3586
    56.2076  56.2076  61.6108  73.4295

     occupation numbers 
     1.0000   1.0000   1.0000   1.0000   1.0000   1.0000  -0.0797   0.0000
     0.0000   0.0000   0.0000   0.0000   0.0000   0.0000   0.0000   0.0000
     0.0000   0.0000   0.0000   0.0000

          k = 0.0000-0.0667 0.7333 (   330 PWs)   bands (ev):

   -67.1540 -33.4562 -33.3928 -33.3760  15.3662  15.7820  19.0826  19.2166
    20.1672  23.6254  30.1787  31.0059  35.3411  37.0946  44.9928  53.3593
    57.3496  58.9209  63.6460  70.8639

     occupation numbers 
     1.0000   1.0000   1.0000   1.0000   1.0000   1.0000  -0.0465   0.0000
     0.0000   0.0000   0.0000   0.0000   0.0000   0.0000   0.0000   0.0000
     0.0000   0.0000   0.0000   0.0000

          k = 0.0000-0.1333 0.8000 (   334 PWs)   bands (ev):

   -67.1483 -33.4810 -33.4069 -33.3725  15.4396  15.5561  19.1046  19.3773
    20.5157  25.3415  27.9514  30.3670  35.4482  37.8093  43.3072  53.1611
    57.5669  61.9624  66.8069  67.4794

     occupation numbers 
     1.0000   1.0000   1.0000   1.0000   1.0000   1.0000  -0.0297   0.0000
     0.0000   0.0000   0.0000   0.0000   0.0000   0.0000   0.0000   0.0000
     0.0000   0.0000   0.0000   0.0000

          k =-0.0667-0.0667 0.8000 (   333 PWs)   bands (ev):

   -67.1462 -33.4654 -33.4242 -33.3831  15.3606  15.5098  19.1952  19.7352
    20.3576  25.1777  29.2096  29.4194  35.6263  36.9235  42.9467  53.6918
    59.5033  60.3087  65.5809  68.3170

     occupation numbers 
     1.0000   1.0000   1.0000   1.0000   1.0000   1.0000  -0.0275   0.0000
     0.0000   0.0000   0.0000   0.0000   0.0000   0.0000   0.0000   0.0000
     0.0000   0.0000   0.0000   0.0000

          k =-0.0667 0.8667-0.1333 (   336 PWs)   bands (ev):

   -67.1434 -33.4694 -33.4381 -33.3820  15.3802  15.3851  19.2005  19.9584
    20.4369  26.7440  27.5718  29.0192  35.9030  36.9835  42.0737  53.6846
    59.8232  62.5329  64.8544  69.0832

     occupation numbers 
     1.0000   1.0000   1.0000   1.0000   1.0000   1.0000  -0.0169   0.0000
     0.0000   0.0000   0.0000   0.0000   0.0000   0.0000   0.0000   0.0000
     0.0000   0.0000   0.0000   0.0000

          k = 0.0000 0.0000 0.8000 (   338 PWs)   bands (ev):

   -67.1441 -33.4462 -33.4191 -33.4191  15.2681  15.4593  19.7075  19.7075
    20.2149  24.9025  29.7940  29.7940  34.8812  36.3181  42.6702  54.7183
    60.1385  60.1385  63.8488  69.9080

     occupation numbers 
     1.0000   1.0000   1.0000   1.0000   1.0000   1.0000  -0.0160   0.0000
     0.0000   0.0000   0.0000   0.0000   0.0000   0.0000   0.0000   0.0000
     0.0000   0.0000   0.0000   0.0000

          k = 0.0000-0.0667 0.8667 (   336 PWs)   bands (ev):

   -67.1386 -33.4613 -33.4335 -33.4221  15.2112  15.2635  19.8886  19.9925
    20.4681  26.5012  28.3720  29.0922  35.0531  36.0882  41.1981  55.0433
    61.1243  62.4925  66.0216  67.3990

     occupation numbers 
     1.0000   1.0000   1.0000   1.0000   1.0000   1.0000  -0.0132   0.0000
     0.0000   0.0000   0.0000   0.0000   0.0000   0.0000   0.0000   0.0000
     0.0000   0.0000   0.0000   0.0000

          k =-0.0667 0.9333-0.0667 (   334 PWs)   bands (ev):

   -67.1360 -33.4536 -33.4536 -33.4251  15.1652  15.1652  19.9672  20.3975
    20.3975  27.8567  27.8567  28.2191  35.3840  35.3840  40.5500  55.3704
    62.3192  64.4626  64.4626  68.7559

     occupation numbers 
     1.0000   1.0000   1.0000   1.0000   1.0000   1.0000  -0.0080   0.0000
     0.0000   0.0000   0.0000   0.0000   0.0000   0.0000   0.0000   0.0000
     0.0000   0.0000   0.0000   0.0000

          k = 0.0000 0.0000 0.9333 (   338 PWs)   bands (ev):

   -67.1333 -33.4514 -33.4481 -33.4481  15.0796  15.0936  20.3834  20.3834
    20.4590  27.5960  28.3396  28.3396  34.7417  35.1095  40.0383  55.9004
    64.3139  64.3139  65.8801  67.1158

     occupation numbers 
     1.0000   1.0000   1.0000   1.0000   1.0000   1.0000   0.0000   0.0000
     0.0000   0.0000   0.0000   0.0000   0.0000   0.0000   0.0000   0.0000
     0.0000   0.0000   0.0000   0.0000

     the Fermi energy is    18.0723 ev
     (compare with:    18.0822 eV, computed in scf)

     Writing all to output data dir ./fe.save/

     init_run     :      0.61s CPU      0.68s WALL (       1 calls)
     electrons    :     47.18s CPU     47.87s WALL (       1 calls)

     Called by init_run:
     wfcinit      :      0.00s CPU      0.00s WALL (       1 calls)
     wfcinit:atom :      0.03s CPU      0.04s WALL (     240 calls)
     wfcinit:wfcr :      1.92s CPU      1.96s WALL (     240 calls)
     potinit      :      0.12s CPU      0.12s WALL (       1 calls)
     hinit0       :      0.44s CPU      0.45s WALL (       1 calls)

     Called by electrons:
     c_bands      :     46.04s CPU     46.70s WALL (       1 calls)
     v_of_rho     :      0.11s CPU      0.11s WALL (       1 calls)
     v_h          :      0.00s CPU      0.00s WALL (       1 calls)
     v_xc         :      0.11s CPU      0.11s WALL (       1 calls)
     newd         :      0.03s CPU      0.07s WALL (       1 calls)

     Called by c_bands:
     init_us_2    :      0.04s CPU      0.04s WALL (     240 calls)
     init_us_2:cp :      0.04s CPU      0.04s WALL (     240 calls)
     cegterg      :     43.88s CPU     44.45s WALL (     442 calls)

     Called by sum_band:

     Called by *egterg:
     cdiaghg      :      5.33s CPU      5.40s WALL (    6279 calls)
     cegterg:over :      3.65s CPU      3.70s WALL (    6039 calls)
     cegterg:upda :      1.73s CPU      1.75s WALL (    6039 calls)
     cegterg:last :      4.79s CPU      4.84s WALL (    3349 calls)
     h_psi        :     28.40s CPU     28.84s WALL (    6721 calls)
     s_psi        :      0.90s CPU      0.92s WALL (    6721 calls)
     g_psi        :      0.14s CPU      0.14s WALL (    6039 calls)

     Called by h_psi:
     h_psi:calbec :      1.07s CPU      1.08s WALL (    6721 calls)
     vloc_psi     :     26.27s CPU     26.67s WALL (    6721 calls)
     add_vuspsi   :      0.92s CPU      0.93s WALL (    6721 calls)

     General routines
     calbec       :      1.04s CPU      1.06s WALL (    6721 calls)
     fft          :      0.02s CPU      0.03s WALL (      23 calls)
     ffts         :      0.00s CPU      0.00s WALL (       2 calls)
     fftw         :     24.26s CPU     24.69s WALL (  147838 calls)
     interpolate  :      0.00s CPU      0.00s WALL (       2 calls)
     davcio       :      0.04s CPU      0.06s WALL (     480 calls)

     Parallel routines

     PWSCF        :     49.88s CPU     50.82s WALL


   This run was terminated on:  14:47:40   4Feb2022            

=------------------------------------------------------------------------------=
   JOB DONE.
=------------------------------------------------------------------------------=
