
     Program PROJWFC v.7.0 starts on  4Feb2022 at 14:58: 6 

     This program is part of the open-source Quantum ESPRESSO suite
     for quantum simulation of materials; please cite
         "P. Giannozzi et al., J. Phys.:Condens. Matter 21 395502 (2009);
         "P. Giannozzi et al., J. Phys.:Condens. Matter 29 465901 (2017);
         "P. Giannozzi et al., J. Chem. Phys. 152 154105 (2020);
          URL http://www.quantum-espresso.org", 
     in publications or presentations arising from this work. More details at
     http://www.quantum-espresso.org/quote

     Parallel version (MPI), running on     1 processors

     MPI processes distributed on     1 nodes
     279 MiB available memory on the printing compute node when the environment starts


     Reading xml data from directory:

     ./fe.save/

     IMPORTANT: XC functional enforced from input :
     Exchange-correlation= PBE
                           (   1   4   3   4   0   0   0)
     Any further DFT definition will be discarded
     Please, verify this is what you really want


     G-vector sticks info
     --------------------
     sticks:   dense  smooth     PW     G-vecs:    dense   smooth      PW
     Sum         645     261     91                10425     2659     555

     Using Slab Decomposition


     Check: negative core charge=   -0.000042

     Gaussian broadening (read from input): ngauss,degauss=   0    0.010000


     Calling projwave .... 

     Subspace diagonalization in iterative solution of the eigenvalue problem:
     a serial algorithm will be used


  Problem Sizes 
  natomwfc =           13
  nbnd     =           20
  nkstot   =          240
  npwx     =          342
  nkb      =           18


     Atomic states used for projection
     (read from pseudopotential files):

     state #   1: atom   1 (Fe ), wfc  1 (l=0 m= 1)
     state #   2: atom   1 (Fe ), wfc  2 (l=1 m= 1)
     state #   3: atom   1 (Fe ), wfc  2 (l=1 m= 2)
     state #   4: atom   1 (Fe ), wfc  2 (l=1 m= 3)
     state #   5: atom   1 (Fe ), wfc  3 (l=2 m= 1)
     state #   6: atom   1 (Fe ), wfc  3 (l=2 m= 2)
     state #   7: atom   1 (Fe ), wfc  3 (l=2 m= 3)
     state #   8: atom   1 (Fe ), wfc  3 (l=2 m= 4)
     state #   9: atom   1 (Fe ), wfc  3 (l=2 m= 5)
     state #  10: atom   1 (Fe ), wfc  4 (l=0 m= 1)
     state #  11: atom   1 (Fe ), wfc  5 (l=1 m= 1)
     state #  12: atom   1 (Fe ), wfc  5 (l=1 m= 2)
     state #  13: atom   1 (Fe ), wfc  5 (l=1 m= 3)

 k =   0.0000000000  0.0000000000  0.0000000000
==== e(   1) =   -70.02969 eV ==== 
     psi = 0.954*[#   1]+0.046*[#  10]
    |psi|^2 = 1.000
==== e(   2) =   -35.82317 eV ==== 
     psi = 0.007*[#   2]+0.007*[#   3]+0.007*[#   4]
    |psi|^2 = 0.021
==== e(   3) =   -35.82317 eV ==== 
     psi = 0.645*[#   2]+0.645*[#   3]+0.645*[#   4]+0.011*[#  11]+0.011*[#  12]
          +0.011*[#  13]
    |psi|^2 = 1.968
==== e(   4) =   -35.82317 eV ==== 
     psi = 0.330*[#   2]+0.330*[#   3]+0.330*[#   4]+0.006*[#  11]+0.006*[#  12]
          +0.006*[#  13]
    |psi|^2 = 1.008
==== e(   5) =     9.62380 eV ==== 
     psi = 0.954*[#  10]+0.046*[#   1]
    |psi|^2 = 1.000
==== e(   6) =    15.77937 eV ==== 
     psi = 0.331*[#   6]+0.331*[#   7]+0.331*[#   9]
    |psi|^2 = 0.994
==== e(   7) =    15.77937 eV ==== 
     psi = 0.331*[#   6]+0.331*[#   7]+0.331*[#   9]
    |psi|^2 = 0.994
==== e(   8) =    15.77937 eV ==== 
     psi = 0.331*[#   6]+0.331*[#   7]+0.331*[#   9]
    |psi|^2 = 0.994
==== e(   9) =    17.04873 eV ==== 
     psi = 0.498*[#   5]+0.498*[#   8]
    |psi|^2 = 0.997
==== e(  10) =    17.04873 eV ==== 
     psi = 0.498*[#   5]+0.498*[#   8]
    |psi|^2 = 0.997
==== e(  11) =    42.45269 eV ==== 

    |psi|^2 = 0.000
==== e(  12) =    42.45269 eV ==== 

    |psi|^2 = 0.000
==== e(  13) =    42.45269 eV ==== 

    |psi|^2 = 0.000
==== e(  14) =    47.96777 eV ==== 
     psi = 0.002*[#   5]+0.002*[#   8]
    |psi|^2 = 0.003
==== e(  15) =    47.96777 eV ==== 
     psi = 0.002*[#   5]+0.002*[#   8]
    |psi|^2 = 0.003
==== e(  16) =    50.10441 eV ==== 
     psi = 0.002*[#   6]+0.002*[#   7]+0.002*[#   9]
    |psi|^2 = 0.006
==== e(  17) =    50.10441 eV ==== 
     psi = 0.002*[#   6]+0.002*[#   7]+0.002*[#   9]
    |psi|^2 = 0.006
==== e(  18) =    50.10441 eV ==== 
     psi = 0.002*[#   6]+0.002*[#   7]+0.002*[#   9]
    |psi|^2 = 0.006
==== e(  19) =    50.75309 eV ==== 
     psi = 0.045*[#  11]+0.045*[#  12]+0.045*[#  13]
    |psi|^2 = 0.137
==== e(  20) =    50.75309 eV ==== 
     psi = 0.294*[#  11]+0.294*[#  12]+0.294*[#  13]+0.005*[#   2]+0.005*[#   3]
          +0.005*[#   4]
    |psi|^2 = 0.896

 k =   0.0000000000 -0.0666666667  0.0666666667
==== e(   1) =   -70.02637 eV ==== 
     psi = 0.934*[#   1]+0.028*[#  10]+0.013*[#  11]+0.013*[#  12]+0.013*[#  13]
          
    |psi|^2 = 1.000
==== e(   2) =   -35.84102 eV ==== 
     psi = 0.164*[#   2]+0.164*[#   3]+0.164*[#   4]+0.003*[#  10]+0.002*[#  11]
          +0.002*[#  12]+0.002*[#  13]
    |psi|^2 = 0.502
==== e(   3) =   -35.82910 eV ==== 
     psi = 0.492*[#   2]+0.492*[#   3]+0.492*[#   4]+0.007*[#  11]+0.007*[#  12]
          +0.007*[#  13]
    |psi|^2 = 1.498
==== e(   4) =   -35.82315 eV ==== 
     psi = 0.164*[#   2]+0.164*[#   3]+0.164*[#   4]+0.003*[#  11]+0.003*[#  12]
          +0.003*[#  13]
    |psi|^2 = 0.500
==== e(   5) =     9.80765 eV ==== 
     psi = 0.852*[#  10]+0.049*[#   1]+0.033*[#  11]+0.033*[#  12]+0.033*[#  13]
          
    |psi|^2 = 1.000
==== e(   6) =    15.72914 eV ==== 
     psi = 0.331*[#   6]+0.331*[#   7]+0.331*[#   9]
    |psi|^2 = 0.994
==== e(   7) =    15.77517 eV ==== 
     psi = 0.330*[#   6]+0.330*[#   7]+0.330*[#   9]+0.001*[#   5]+0.001*[#   8]
          
    |psi|^2 = 0.993
==== e(   8) =    15.87771 eV ==== 
     psi = 0.331*[#   6]+0.331*[#   7]+0.331*[#   9]
    |psi|^2 = 0.995
==== e(   9) =    16.99850 eV ==== 
     psi = 0.497*[#   5]+0.497*[#   8]
    |psi|^2 = 0.996
==== e(  10) =    17.05270 eV ==== 
     psi = 0.498*[#   5]+0.498*[#   8]
    |psi|^2 = 0.997
==== e(  11) =    41.39824 eV ==== 
     psi = 0.006*[#  11]+0.006*[#  12]+0.006*[#  13]+0.005*[#  10]
    |psi|^2 = 0.028
==== e(  12) =    42.22723 eV ==== 
     psi = 0.002*[#  11]+0.002*[#  12]+0.002*[#  13]
    |psi|^2 = 0.008
==== e(  13) =    42.36509 eV ==== 

    |psi|^2 = 0.001
==== e(  14) =    47.21759 eV ==== 
     psi = 0.058*[#  11]+0.058*[#  12]+0.058*[#  13]
    |psi|^2 = 0.179
==== e(  15) =    47.98267 eV ==== 
     psi = 0.256*[#  11]+0.256*[#  12]+0.256*[#  13]+0.004*[#   2]+0.004*[#   3]
          +0.004*[#   4]+0.002*[#   6]+0.002*[#   7]+0.002*[#   9]
    |psi|^2 = 0.787
==== e(  16) =    47.99620 eV ==== 
     psi = 0.091*[#  11]+0.091*[#  12]+0.091*[#  13]+0.075*[#  10]+0.011*[#   1]
          +0.001*[#   2]+0.001*[#   3]+0.001*[#   4]
    |psi|^2 = 0.366
==== e(  17) =    48.87735 eV ==== 
     psi = 0.005*[#  11]+0.005*[#  12]+0.005*[#  13]+0.002*[#  10]
    |psi|^2 = 0.021
==== e(  18) =    50.54322 eV ==== 
     psi = 0.002*[#   6]+0.002*[#   7]+0.002*[#   9]
    |psi|^2 = 0.005
==== e(  19) =    52.19405 eV ==== 
     psi = 0.099*[#  11]+0.099*[#  12]+0.099*[#  13]+0.002*[#   2]+0.002*[#   3]
          +0.002*[#   4]
    |psi|^2 = 0.301
==== e(  20) =    52.94395 eV ==== 
     psi = 0.121*[#  11]+0.121*[#  12]+0.121*[#  13]+0.002*[#   2]+0.002*[#   3]
          +0.002*[#   4]
    |psi|^2 = 0.370

 k =   0.0000000000 -0.1333333333  0.1333333333
==== e(   1) =   -70.01697 eV ==== 
     psi = 0.903*[#   1]+0.030*[#  11]+0.030*[#  12]+0.030*[#  13]+0.006*[#  10]
          
    |psi|^2 = 1.000
==== e(   2) =   -35.89131 eV ==== 
     psi = 0.165*[#   2]+0.165*[#   3]+0.165*[#   4]+0.008*[#  10]
    |psi|^2 = 0.504
==== e(   3) =   -35.84586 eV ==== 
     psi = 0.494*[#   2]+0.494*[#   3]+0.494*[#   4]+0.005*[#  11]+0.005*[#  12]
          +0.005*[#  13]
    |psi|^2 = 1.496
==== e(   4) =   -35.82311 eV ==== 
     psi = 0.164*[#   2]+0.164*[#   3]+0.164*[#   4]+0.003*[#  11]+0.003*[#  12]
          +0.003*[#  13]
    |psi|^2 = 0.500
==== e(   5) =    10.34240 eV ==== 
     psi = 0.662*[#  10]+0.092*[#  11]+0.092*[#  12]+0.092*[#  13]+0.055*[#   1]
          +0.001*[#   6]+0.001*[#   7]+0.001*[#   9]
    |psi|^2 = 1.000
==== e(   6) =    15.58905 eV ==== 
     psi = 0.331*[#   6]+0.331*[#   7]+0.331*[#   9]
    |psi|^2 = 0.993
==== e(   7) =    15.74300 eV ==== 
     psi = 0.316*[#   6]+0.316*[#   7]+0.316*[#   9]+0.018*[#   5]+0.018*[#   8]
          +0.002*[#  11]+0.002*[#  12]+0.002*[#  13]
    |psi|^2 = 0.989
==== e(   8) =    16.16235 eV ==== 
     psi = 0.330*[#   6]+0.330*[#   7]+0.330*[#   9]+0.001*[#  11]+0.001*[#  12]
          +0.001*[#  13]
    |psi|^2 = 0.996
==== e(   9) =    16.89557 eV ==== 
     psi = 0.479*[#   5]+0.479*[#   8]+0.012*[#   6]+0.012*[#   7]+0.012*[#   9]
          
    |psi|^2 = 0.995
==== e(  10) =    17.06597 eV ==== 
     psi = 0.498*[#   5]+0.498*[#   8]
    |psi|^2 = 0.997
==== e(  11) =    38.98968 eV ==== 
     psi = 0.095*[#  10]+0.031*[#  11]+0.031*[#  12]+0.031*[#  13]+0.012*[#   1]
          +0.002*[#   5]+0.002*[#   6]+0.002*[#   7]+0.002*[#   8]+0.002*[#   9]
          
    |psi|^2 = 0.212
==== e(  12) =    41.37391 eV ==== 
     psi = 0.026*[#  11]+0.026*[#  12]+0.026*[#  13]+0.001*[#   5]+0.001*[#   8]
          
    |psi|^2 = 0.081
==== e(  13) =    42.15488 eV ==== 
     psi = 0.001*[#   6]+0.001*[#   7]+0.001*[#   9]
    |psi|^2 = 0.004
==== e(  14) =    45.66828 eV ==== 
     psi = 0.255*[#  11]+0.255*[#  12]+0.255*[#  13]+0.004*[#   2]+0.004*[#   3]
          +0.004*[#   4]+0.003*[#   6]+0.003*[#   7]+0.003*[#   9]
    |psi|^2 = 0.786
==== e(  15) =    46.58519 eV ==== 
     psi = 0.187*[#  10]+0.060*[#  11]+0.060*[#  12]+0.060*[#  13]+0.024*[#   1]
          +0.001*[#   6]+0.001*[#   7]+0.001*[#   9]
    |psi|^2 = 0.396
==== e(  16) =    46.85786 eV ==== 
     psi = 0.333*[#  11]+0.333*[#  12]+0.333*[#  13]+0.005*[#   2]+0.005*[#   3]
          +0.005*[#   4]
    |psi|^2 = 1.016
==== e(  17) =    50.07183 eV ==== 
     psi = 0.013*[#  10]+0.008*[#  11]+0.008*[#  12]+0.008*[#  13]+0.002*[#   1]
          
    |psi|^2 = 0.042
==== e(  18) =    51.79407 eV ==== 
     psi = 0.001*[#   6]+0.001*[#   7]+0.001*[#   9]
    |psi|^2 = 0.003
==== e(  19) =    54.79751 eV ==== 
     psi = 0.055*[#  11]+0.055*[#  12]+0.055*[#  13]
    |psi|^2 = 0.169
==== e(  20) =    55.48519 eV ==== 
     psi = 0.065*[#  11]+0.065*[#  12]+0.065*[#  13]
    |psi|^2 = 0.199

 k =   0.0000000000 -0.2000000000  0.2000000000
==== e(   1) =   -70.00310 eV ==== 
     psi = 0.895*[#   1]+0.035*[#  11]+0.035*[#  12]+0.035*[#  13]
    |psi|^2 = 1.000
==== e(   2) =   -35.96497 eV ==== 
     psi = 0.165*[#   2]+0.165*[#   3]+0.165*[#   4]+0.008*[#  10]
    |psi|^2 = 0.504
==== e(   3) =   -35.87051 eV ==== 
     psi = 0.494*[#   2]+0.494*[#   3]+0.494*[#   4]+0.004*[#  11]+0.004*[#  12]
          +0.004*[#  13]
    |psi|^2 = 1.496
==== e(   4) =   -35.82304 eV ==== 
     psi = 0.164*[#   2]+0.164*[#   3]+0.164*[#   4]+0.003*[#  11]+0.003*[#  12]
          +0.003*[#  13]
    |psi|^2 = 0.500
==== e(   5) =    11.16599 eV ==== 
     psi = 0.507*[#  10]+0.136*[#  11]+0.136*[#  12]+0.136*[#  13]+0.052*[#   1]
          +0.007*[#   6]+0.007*[#   7]+0.007*[#   9]+0.003*[#   5]+0.003*[#   8]
          +0.002*[#   2]+0.002*[#   3]+0.002*[#   4]
    |psi|^2 = 1.000
==== e(   6) =    15.38756 eV ==== 
     psi = 0.330*[#   6]+0.330*[#   7]+0.330*[#   9]
    |psi|^2 = 0.991
==== e(   7) =    15.66579 eV ==== 
     psi = 0.270*[#   6]+0.270*[#   7]+0.270*[#   9]+0.069*[#   5]+0.069*[#   8]
          +0.007*[#  11]+0.007*[#  12]+0.007*[#  13]+0.003*[#   1]
    |psi|^2 = 0.972
==== e(   8) =    16.60137 eV ==== 
     psi = 0.330*[#   6]+0.330*[#   7]+0.330*[#   9]+0.003*[#  11]+0.003*[#  12]
          +0.003*[#  13]
    |psi|^2 = 0.997
==== e(   9) =    16.84430 eV ==== 
     psi = 0.424*[#   5]+0.424*[#   8]+0.049*[#   6]+0.049*[#   7]+0.049*[#   9]
          
    |psi|^2 = 0.995
==== e(  10) =    17.09092 eV ==== 
     psi = 0.498*[#   5]+0.498*[#   8]
    |psi|^2 = 0.997
==== e(  11) =    36.04677 eV ==== 
     psi = 0.289*[#  10]+0.045*[#  11]+0.045*[#  12]+0.045*[#  13]+0.030*[#   1]
          +0.006*[#   6]+0.006*[#   7]+0.006*[#   9]+0.003*[#   5]+0.003*[#   8]
          
    |psi|^2 = 0.478
==== e(  12) =    40.02247 eV ==== 
     psi = 0.062*[#  11]+0.062*[#  12]+0.062*[#  13]+0.002*[#   5]+0.002*[#   8]
          +0.001*[#   2]+0.001*[#   3]+0.001*[#   4]
    |psi|^2 = 0.193
==== e(  13) =    41.91488 eV ==== 
     psi = 0.002*[#   6]+0.002*[#   7]+0.002*[#   9]
    |psi|^2 = 0.007
==== e(  14) =    43.49856 eV ==== 
     psi = 0.288*[#  11]+0.288*[#  12]+0.288*[#  13]+0.004*[#   2]+0.004*[#   3]
          +0.004*[#   4]+0.003*[#   6]+0.003*[#   7]+0.003*[#   9]
    |psi|^2 = 0.886
==== e(  15) =    45.68730 eV ==== 
     psi = 0.167*[#  10]+0.026*[#  11]+0.026*[#  12]+0.026*[#  13]+0.017*[#   1]
          
    |psi|^2 = 0.265
==== e(  16) =    47.55135 eV ==== 
     psi = 0.353*[#  11]+0.353*[#  12]+0.353*[#  13]+0.005*[#   2]+0.005*[#   3]
          +0.005*[#   4]
    |psi|^2 = 1.075
==== e(  17) =    51.17744 eV ==== 
     psi = 0.016*[#  10]+0.005*[#  11]+0.005*[#  12]+0.005*[#  13]+0.001*[#   1]
          
    |psi|^2 = 0.033
==== e(  18) =    53.73030 eV ==== 

    |psi|^2 = 0.002
==== e(  19) =    57.75374 eV ==== 
     psi = 0.030*[#  11]+0.030*[#  12]+0.030*[#  13]
    |psi|^2 = 0.093
==== e(  20) =    58.09624 eV ==== 
     psi = 0.034*[#  11]+0.034*[#  12]+0.034*[#  13]
    |psi|^2 = 0.103

 k =   0.0000000000 -0.2666666667  0.2666666667
==== e(   1) =   -69.98714 eV ==== 
     psi = 0.910*[#   1]+0.030*[#  11]+0.030*[#  12]+0.030*[#  13]
    |psi|^2 = 1.000
==== e(   2) =   -36.04890 eV ==== 
     psi = 0.165*[#   2]+0.165*[#   3]+0.165*[#   4]+0.006*[#  10]
    |psi|^2 = 0.503
==== e(   3) =   -35.89871 eV ==== 
     psi = 0.495*[#   2]+0.495*[#   3]+0.495*[#   4]+0.004*[#  11]+0.004*[#  12]
          +0.004*[#  13]
    |psi|^2 = 1.497
==== e(   4) =   -35.82297 eV ==== 
     psi = 0.164*[#   2]+0.164*[#   3]+0.164*[#   4]+0.003*[#  11]+0.003*[#  12]
          +0.003*[#  13]
    |psi|^2 = 0.500
==== e(   5) =    12.11798 eV ==== 
     psi = 0.400*[#  10]+0.142*[#  11]+0.142*[#  12]+0.142*[#  13]+0.038*[#   1]
          +0.031*[#   6]+0.031*[#   7]+0.031*[#   9]+0.017*[#   5]+0.017*[#   8]
          +0.003*[#   2]+0.003*[#   3]+0.003*[#   4]
    |psi|^2 = 0.998
==== e(   6) =    15.16296 eV ==== 
     psi = 0.330*[#   6]+0.330*[#   7]+0.330*[#   9]
    |psi|^2 = 0.989
==== e(   7) =    15.67272 eV ==== 
     psi = 0.193*[#   6]+0.193*[#   7]+0.193*[#   9]+0.124*[#   5]+0.124*[#   8]
          +0.024*[#  11]+0.024*[#  12]+0.024*[#  13]+0.010*[#   1]+0.007*[#  10]
          
    |psi|^2 = 0.919
==== e(   8) =    16.89295 eV ==== 
     psi = 0.353*[#   5]+0.353*[#   8]+0.097*[#   6]+0.097*[#   7]+0.097*[#   9]
          
    |psi|^2 = 0.996
==== e(   9) =    17.12779 eV ==== 
     psi = 0.498*[#   5]+0.498*[#   8]
    |psi|^2 = 0.997
==== e(  10) =    17.13896 eV ==== 
     psi = 0.330*[#   6]+0.330*[#   7]+0.330*[#   9]+0.003*[#  11]+0.003*[#  12]
          +0.003*[#  13]
    |psi|^2 = 0.998
==== e(  11) =    32.97937 eV ==== 
     psi = 0.467*[#  10]+0.045*[#  11]+0.045*[#  12]+0.045*[#  13]+0.035*[#   1]
          +0.011*[#   6]+0.011*[#   7]+0.011*[#   9]+0.005*[#   5]+0.005*[#   8]
          
    |psi|^2 = 0.681
==== e(  12) =    38.62356 eV ==== 
     psi = 0.095*[#  11]+0.095*[#  12]+0.095*[#  13]+0.002*[#   2]+0.002*[#   3]
          +0.002*[#   4]+0.001*[#   5]+0.001*[#   8]
    |psi|^2 = 0.291
==== e(  13) =    41.55291 eV ==== 
     psi = 0.306*[#  11]+0.306*[#  12]+0.306*[#  13]+0.004*[#   6]+0.004*[#   7]
          +0.004*[#   9]+0.003*[#   2]+0.003*[#   3]+0.003*[#   4]
    |psi|^2 = 0.939
==== e(  14) =    41.70390 eV ==== 
     psi = 0.306*[#  11]+0.306*[#  12]+0.306*[#  13]+0.003*[#   2]+0.003*[#   3]
          +0.003*[#   4]+0.003*[#   6]+0.003*[#   7]+0.003*[#   9]
    |psi|^2 = 0.938
==== e(  15) =    45.23691 eV ==== 
     psi = 0.104*[#  10]+0.010*[#  11]+0.010*[#  12]+0.010*[#  13]+0.007*[#   1]
          +0.001*[#   5]+0.001*[#   8]
    |psi|^2 = 0.144
==== e(  16) =    48.97662 eV ==== 
     psi = 0.049*[#  11]+0.049*[#  12]+0.049*[#  13]
    |psi|^2 = 0.149
==== e(  17) =    51.79197 eV ==== 
     psi = 0.008*[#  10]+0.001*[#  11]+0.001*[#  12]+0.001*[#  13]
    |psi|^2 = 0.013
==== e(  18) =    56.24178 eV ==== 

    |psi|^2 = 0.001
==== e(  19) =    60.78139 eV ==== 
     psi = 0.018*[#  11]+0.018*[#  12]+0.018*[#  13]
    |psi|^2 = 0.054
==== e(  20) =    60.89288 eV ==== 
     psi = 0.015*[#  11]+0.015*[#  12]+0.015*[#  13]
    |psi|^2 = 0.045

 k =   0.0000000000 -0.3333333333  0.3333333333
==== e(   1) =   -69.97184 eV ==== 
     psi = 0.939*[#   1]+0.019*[#  11]+0.019*[#  12]+0.019*[#  13]+0.002*[#  10]
          
    |psi|^2 = 1.000
==== e(   2) =   -36.12852 eV ==== 
     psi = 0.164*[#   2]+0.164*[#   3]+0.164*[#   4]+0.003*[#  10]+0.002*[#  11]
          +0.002*[#  12]+0.002*[#  13]
    |psi|^2 = 0.502
==== e(   3) =   -35.92560 eV ==== 
     psi = 0.495*[#   2]+0.495*[#   3]+0.495*[#   4]+0.005*[#  11]+0.005*[#  12]
          +0.005*[#  13]
    |psi|^2 = 1.498
==== e(   4) =   -35.82291 eV ==== 
     psi = 0.164*[#   2]+0.164*[#   3]+0.164*[#   4]+0.002*[#  11]+0.002*[#  12]
          +0.002*[#  13]
    |psi|^2 = 0.500
==== e(   5) =    12.85258 eV ==== 
     psi = 0.310*[#  10]+0.090*[#  11]+0.090*[#  12]+0.090*[#  13]+0.090*[#   6]
          +0.090*[#   7]+0.090*[#   9]+0.061*[#   5]+0.061*[#   8]+0.015*[#   1]
          +0.002*[#   2]+0.002*[#   3]+0.002*[#   4]
    |psi|^2 = 0.995
==== e(   6) =    14.95451 eV ==== 
     psi = 0.329*[#   6]+0.329*[#   7]+0.329*[#   9]
    |psi|^2 = 0.988
==== e(   7) =    16.11610 eV ==== 
     psi = 0.150*[#   5]+0.150*[#   8]+0.081*[#   6]+0.081*[#   7]+0.081*[#   9]
          +0.065*[#  11]+0.065*[#  12]+0.065*[#  13]+0.036*[#  10]+0.017*[#   1]
          +0.001*[#   2]+0.001*[#   3]+0.001*[#   4]
    |psi|^2 = 0.796
==== e(   8) =    17.01167 eV ==== 
     psi = 0.278*[#   5]+0.278*[#   8]+0.140*[#   6]+0.140*[#   7]+0.140*[#   9]
          +0.003*[#  11]+0.003*[#  12]+0.003*[#  13]
    |psi|^2 = 0.988
==== e(   9) =    17.17163 eV ==== 
     psi = 0.498*[#   5]+0.498*[#   8]
    |psi|^2 = 0.998
==== e(  10) =    17.69333 eV ==== 
     psi = 0.330*[#   6]+0.330*[#   7]+0.330*[#   9]+0.003*[#  11]+0.003*[#  12]
          +0.003*[#  13]
    |psi|^2 = 0.999
==== e(  11) =    30.02604 eV ==== 
     psi = 0.585*[#  10]+0.038*[#  11]+0.038*[#  12]+0.038*[#  13]+0.025*[#   1]
          +0.021*[#   6]+0.021*[#   7]+0.021*[#   9]+0.008*[#   5]+0.008*[#   8]
          
    |psi|^2 = 0.804
==== e(  12) =    37.43982 eV ==== 
     psi = 0.113*[#  11]+0.113*[#  12]+0.113*[#  13]+0.002*[#   2]+0.002*[#   3]
          +0.002*[#   4]+0.001*[#   5]+0.001*[#   8]
    |psi|^2 = 0.347
==== e(  13) =    39.92918 eV ==== 
     psi = 0.316*[#  11]+0.316*[#  12]+0.316*[#  13]+0.003*[#   6]+0.003*[#   7]
          +0.003*[#   9]+0.003*[#   2]+0.003*[#   3]+0.003*[#   4]
    |psi|^2 = 0.964
==== e(  14) =    41.54422 eV ==== 
     psi = 0.316*[#  11]+0.316*[#  12]+0.316*[#  13]+0.004*[#   6]+0.004*[#   7]
          +0.004*[#   9]+0.003*[#   2]+0.003*[#   3]+0.003*[#   4]
    |psi|^2 = 0.967
==== e(  15) =    45.08783 eV ==== 
     psi = 0.057*[#  10]+0.004*[#  11]+0.004*[#  12]+0.004*[#  13]+0.002*[#   1]
          +0.001*[#   5]+0.001*[#   8]
    |psi|^2 = 0.073
==== e(  16) =    50.90238 eV ==== 
     psi = 0.035*[#  11]+0.035*[#  12]+0.035*[#  13]
    |psi|^2 = 0.107
==== e(  17) =    51.93500 eV ==== 
     psi = 0.002*[#  10]
    |psi|^2 = 0.003
==== e(  18) =    59.23835 eV ==== 

    |psi|^2 = 0.000
==== e(  19) =    63.52927 eV ==== 
     psi = 0.010*[#  11]+0.010*[#  12]+0.010*[#  13]
    |psi|^2 = 0.030
==== e(  20) =    63.62832 eV ==== 
     psi = 0.002*[#  10]
    |psi|^2 = 0.003

 k =   0.0000000000 -0.4000000000  0.4000000000
==== e(   1) =   -69.95988 eV ==== 
     psi = 0.972*[#   1]+0.008*[#  11]+0.008*[#  12]+0.008*[#  13]+0.002*[#  10]
          
    |psi|^2 = 1.000
==== e(   2) =   -36.19030 eV ==== 
     psi = 0.163*[#   2]+0.163*[#   3]+0.163*[#   4]+0.003*[#  11]+0.003*[#  12]
          +0.003*[#  13]+0.001*[#  10]
    |psi|^2 = 0.501
==== e(   3) =   -35.94655 eV ==== 
     psi = 0.494*[#   2]+0.494*[#   3]+0.494*[#   4]+0.005*[#  11]+0.005*[#  12]
          +0.005*[#  13]
    |psi|^2 = 1.499
==== e(   4) =   -35.82286 eV ==== 
     psi = 0.164*[#   2]+0.164*[#   3]+0.164*[#   4]+0.002*[#  11]+0.002*[#  12]
          +0.002*[#  13]
    |psi|^2 = 0.500
==== e(   5) =    13.12903 eV ==== 
     psi = 0.243*[#  10]+0.142*[#   6]+0.142*[#   7]+0.142*[#   9]+0.116*[#   5]
          +0.116*[#   8]+0.029*[#  11]+0.029*[#  12]+0.029*[#  13]+0.003*[#   1]
          
    |psi|^2 = 0.993
==== e(   6) =    14.79567 eV ==== 
     psi = 0.329*[#   6]+0.329*[#   7]+0.329*[#   9]
    |psi|^2 = 0.987
==== e(   7) =    16.92524 eV ==== 
     psi = 0.345*[#   5]+0.345*[#   8]+0.032*[#  11]+0.032*[#  12]+0.032*[#  13]
          +0.032*[#  10]+0.025*[#   6]+0.025*[#   7]+0.025*[#   9]+0.004*[#   1]
          
    |psi|^2 = 0.899
==== e(   8) =    17.21204 eV ==== 
     psi = 0.499*[#   5]+0.499*[#   8]
    |psi|^2 = 0.998
==== e(   9) =    17.38511 eV ==== 
     psi = 0.173*[#  11]+0.173*[#  12]+0.173*[#  13]+0.129*[#   6]+0.129*[#   7]
          +0.129*[#   9]+0.025*[#   5]+0.025*[#   8]+0.023*[#  10]+0.009*[#   1]
          +0.004*[#   2]+0.004*[#   3]+0.004*[#   4]
    |psi|^2 = 0.999
==== e(  10) =    18.15996 eV ==== 
     psi = 0.332*[#   6]+0.332*[#   7]+0.332*[#   9]+0.001*[#  11]+0.001*[#  12]
          +0.001*[#  13]
    |psi|^2 = 0.999
==== e(  11) =    27.42165 eV ==== 
     psi = 0.665*[#  10]+0.037*[#   6]+0.037*[#   7]+0.037*[#   9]+0.025*[#  11]
          +0.025*[#  12]+0.025*[#  13]+0.013*[#   5]+0.013*[#   8]+0.012*[#   1]
          
    |psi|^2 = 0.889
==== e(  12) =    36.59577 eV ==== 
     psi = 0.123*[#  11]+0.123*[#  12]+0.123*[#  13]+0.002*[#   2]+0.002*[#   3]
          +0.002*[#   4]
    |psi|^2 = 0.377
==== e(  13) =    38.74339 eV ==== 
     psi = 0.321*[#  11]+0.321*[#  12]+0.321*[#  13]+0.002*[#   2]+0.002*[#   3]
          +0.002*[#   4]+0.001*[#   6]+0.001*[#   7]+0.001*[#   9]
    |psi|^2 = 0.974
==== e(  14) =    41.43959 eV ==== 
     psi = 0.321*[#  11]+0.321*[#  12]+0.321*[#  13]+0.004*[#   6]+0.004*[#   7]
          +0.004*[#   9]+0.002*[#   2]+0.002*[#   3]+0.002*[#   4]
    |psi|^2 = 0.983
==== e(  15) =    45.10536 eV ==== 
     psi = 0.031*[#  10]+0.001*[#   5]+0.001*[#   8]+0.001*[#  11]+0.001*[#  12]
          +0.001*[#  13]
    |psi|^2 = 0.038
==== e(  16) =    51.81025 eV ==== 

    |psi|^2 = 0.001
==== e(  17) =    53.19837 eV ==== 
     psi = 0.047*[#  11]+0.047*[#  12]+0.047*[#  13]
    |psi|^2 = 0.145
==== e(  18) =    61.74110 eV ==== 
     psi = 0.010*[#  11]+0.010*[#  12]+0.010*[#  13]
    |psi|^2 = 0.031
==== e(  19) =    62.59699 eV ==== 
     psi = 0.010*[#  11]+0.010*[#  12]+0.010*[#  13]
    |psi|^2 = 0.031
==== e(  20) =    64.13102 eV ==== 
     psi = 0.003*[#  10]
    |psi|^2 = 0.004

 k =   0.0000000000 -0.4666666667  0.4666666667
==== e(   1) =   -69.95332 eV ==== 
     psi = 0.994*[#   1]+0.001*[#  10]+0.001*[#  11]+0.001*[#  12]+0.001*[#  13]
          
    |psi|^2 = 1.000
==== e(   2) =   -36.22396 eV ==== 
     psi = 0.163*[#   2]+0.163*[#   3]+0.163*[#   4]+0.004*[#  11]+0.004*[#  12]
          +0.004*[#  13]
    |psi|^2 = 0.500
==== e(   3) =   -35.95799 eV ==== 
     psi = 0.494*[#   2]+0.494*[#   3]+0.494*[#   4]+0.006*[#  11]+0.006*[#  12]
          +0.006*[#  13]
    |psi|^2 = 1.500
==== e(   4) =   -35.82283 eV ==== 
     psi = 0.164*[#   2]+0.164*[#   3]+0.164*[#   4]+0.002*[#  11]+0.002*[#  12]
          +0.002*[#  13]
    |psi|^2 = 0.500
==== e(   5) =    13.16815 eV ==== 
     psi = 0.217*[#  10]+0.160*[#   6]+0.160*[#   7]+0.160*[#   9]+0.143*[#   5]
          +0.143*[#   8]+0.003*[#  11]+0.003*[#  12]+0.003*[#  13]
    |psi|^2 = 0.992
==== e(   6) =    14.71016 eV ==== 
     psi = 0.329*[#   6]+0.329*[#   7]+0.329*[#   9]
    |psi|^2 = 0.987
==== e(   7) =    17.08397 eV ==== 
     psi = 0.337*[#   5]+0.337*[#   8]+0.103*[#   6]+0.103*[#   7]+0.103*[#   9]
          +0.011*[#  10]
    |psi|^2 = 0.995
==== e(   8) =    17.23653 eV ==== 
     psi = 0.499*[#   5]+0.499*[#   8]
    |psi|^2 = 0.999
==== e(   9) =    18.37750 eV ==== 
     psi = 0.310*[#  11]+0.310*[#  12]+0.310*[#  13]+0.011*[#   6]+0.011*[#   7]
          +0.011*[#   9]+0.011*[#  10]+0.007*[#   2]+0.007*[#   3]+0.007*[#   4]
          +0.002*[#   1]
    |psi|^2 = 0.999
==== e(  10) =    18.43013 eV ==== 
     psi = 0.333*[#   6]+0.333*[#   7]+0.333*[#   9]
    |psi|^2 = 1.000
==== e(  11) =    25.64867 eV ==== 
     psi = 0.736*[#  10]+0.059*[#   6]+0.059*[#   7]+0.059*[#   9]+0.019*[#   5]
          +0.019*[#   8]+0.005*[#  11]+0.005*[#  12]+0.005*[#  13]+0.003*[#   1]
          
    |psi|^2 = 0.967
==== e(  12) =    36.15792 eV ==== 
     psi = 0.127*[#  11]+0.127*[#  12]+0.127*[#  13]+0.002*[#   2]+0.002*[#   3]
          +0.002*[#   4]
    |psi|^2 = 0.388
==== e(  13) =    38.11180 eV ==== 
     psi = 0.324*[#  11]+0.324*[#  12]+0.324*[#  13]+0.002*[#   2]+0.002*[#   3]
          +0.002*[#   4]
    |psi|^2 = 0.978
==== e(  14) =    41.38826 eV ==== 
     psi = 0.324*[#  11]+0.324*[#  12]+0.324*[#  13]+0.004*[#   6]+0.004*[#   7]
          +0.004*[#   9]+0.002*[#   2]+0.002*[#   3]+0.002*[#   4]
    |psi|^2 = 0.991
==== e(  15) =    45.15996 eV ==== 
     psi = 0.021*[#  10]+0.002*[#   5]+0.002*[#   8]
    |psi|^2 = 0.025
==== e(  16) =    51.66271 eV ==== 

    |psi|^2 = 0.000
==== e(  17) =    55.70980 eV ==== 
     psi = 0.023*[#  11]+0.023*[#  12]+0.023*[#  13]
    |psi|^2 = 0.070
==== e(  18) =    58.87478 eV ==== 
     psi = 0.020*[#  11]+0.020*[#  12]+0.020*[#  13]
    |psi|^2 = 0.061
==== e(  19) =    64.10931 eV ==== 
     psi = 0.020*[#  11]+0.020*[#  12]+0.020*[#  13]+0.003*[#  10]
    |psi|^2 = 0.063
==== e(  20) =    65.83425 eV ==== 

    |psi|^2 = 0.000

 k =  -0.0666666667 -0.0666666667  0.1333333333
==== e(   1) =   -70.02001 eV ==== 
     psi = 0.910*[#   1]+0.027*[#  11]+0.027*[#  12]+0.027*[#  13]+0.010*[#  10]
          
    |psi|^2 = 1.000
==== e(   2) =   -35.87583 eV ==== 
     psi = 0.164*[#   2]+0.164*[#   3]+0.164*[#   4]+0.007*[#  10]+0.005*[#  11]
          +0.005*[#  12]+0.005*[#  13]
    |psi|^2 = 0.514
==== e(   3) =   -35.83527 eV ==== 
     psi = 0.494*[#   2]+0.494*[#   3]+0.494*[#   4]+0.006*[#  11]+0.006*[#  12]
          +0.006*[#  13]
    |psi|^2 = 1.499
==== e(   4) =   -35.82757 eV ==== 
     psi = 0.247*[#   2]+0.247*[#   3]+0.247*[#   4]+0.003*[#  11]+0.003*[#  12]
          +0.003*[#  13]
    |psi|^2 = 0.751
==== e(   5) =    10.16744 eV ==== 
     psi = 0.712*[#  10]+0.077*[#  11]+0.077*[#  12]+0.077*[#  13]+0.054*[#   1]
          
    |psi|^2 = 1.000
==== e(   6) =    15.66465 eV ==== 
     psi = 0.329*[#   6]+0.329*[#   7]+0.329*[#   9]+0.013*[#  11]+0.013*[#  12]
          +0.013*[#  13]+0.002*[#   5]+0.002*[#   8]
    |psi|^2 = 1.031
==== e(   7) =    15.71200 eV ==== 
     psi = 0.326*[#   6]+0.326*[#   7]+0.326*[#   9]+0.007*[#   5]+0.007*[#   8]
          +0.002*[#  11]+0.002*[#  12]+0.002*[#  13]
    |psi|^2 = 0.995
==== e(   8) =    16.08452 eV ==== 
     psi = 0.330*[#   6]+0.330*[#   7]+0.330*[#   9]+0.001*[#  11]+0.001*[#  12]
          +0.001*[#  13]
    |psi|^2 = 0.995
==== e(   9) =    16.91208 eV ==== 
     psi = 0.491*[#   5]+0.491*[#   8]+0.005*[#   6]+0.005*[#   7]+0.005*[#   9]
          
    |psi|^2 = 0.995
==== e(  10) =    17.06995 eV ==== 
     psi = 0.496*[#   5]+0.496*[#   8]+0.001*[#   6]+0.001*[#   7]+0.001*[#   9]
          
    |psi|^2 = 0.996
==== e(  11) =    40.00106 eV ==== 
     psi = 0.050*[#  11]+0.050*[#  12]+0.050*[#  13]+0.002*[#   5]+0.002*[#   8]
          +0.001*[#   6]+0.001*[#   7]+0.001*[#   9]
    |psi|^2 = 0.159
==== e(  12) =    40.95660 eV ==== 
     psi = 0.035*[#  10]+0.005*[#   1]+0.001*[#   6]+0.001*[#   7]+0.001*[#   9]
          
    |psi|^2 = 0.045
==== e(  13) =    42.68571 eV ==== 
     psi = 0.003*[#  11]+0.003*[#  12]+0.003*[#  13]
    |psi|^2 = 0.012
==== e(  14) =    45.59147 eV ==== 
     psi = 0.182*[#  11]+0.182*[#  12]+0.182*[#  13]+0.146*[#  10]+0.019*[#   1]
          +0.003*[#   2]+0.003*[#   3]+0.003*[#   4]+0.002*[#   6]+0.002*[#   7]
          +0.002*[#   9]
    |psi|^2 = 0.725
==== e(  15) =    46.68239 eV ==== 
     psi = 0.046*[#  11]+0.046*[#  12]+0.046*[#  13]+0.033*[#  10]+0.005*[#   1]
          
    |psi|^2 = 0.178
==== e(  16) =    48.18925 eV ==== 
     psi = 0.290*[#  11]+0.290*[#  12]+0.290*[#  13]+0.004*[#   2]+0.004*[#   3]
          +0.004*[#   4]+0.001*[#   6]+0.001*[#   7]+0.001*[#   9]
    |psi|^2 = 0.887
==== e(  17) =    49.91158 eV ==== 
     psi = 0.008*[#  11]+0.008*[#  12]+0.008*[#  13]
    |psi|^2 = 0.027
==== e(  18) =    50.52256 eV ==== 
     psi = 0.011*[#  10]+0.008*[#  11]+0.008*[#  12]+0.008*[#  13]+0.001*[#   1]
          +0.001*[#   6]+0.001*[#   7]+0.001*[#   9]
    |psi|^2 = 0.041
==== e(  19) =    54.30941 eV ==== 
     psi = 0.054*[#  11]+0.054*[#  12]+0.054*[#  13]+0.013*[#  10]+0.002*[#   1]
          
    |psi|^2 = 0.179
==== e(  20) =    54.52963 eV ==== 
     psi = 0.048*[#  11]+0.048*[#  12]+0.048*[#  13]+0.026*[#  10]+0.003*[#   1]
          
    |psi|^2 = 0.176

 k =  -0.0666666667 -0.1333333333  0.2000000000
==== e(   1) =   -70.00837 eV ==== 
     psi = 0.894*[#   1]+0.035*[#  11]+0.035*[#  12]+0.035*[#  13]
    |psi|^2 = 1.000
==== e(   2) =   -35.93679 eV ==== 
     psi = 0.162*[#   2]+0.162*[#   3]+0.162*[#   4]+0.008*[#  10]+0.003*[#  11]
          +0.003*[#  12]+0.003*[#  13]
    |psi|^2 = 0.501
==== e(   3) =   -35.85516 eV ==== 
     psi = 0.491*[#   2]+0.491*[#   3]+0.491*[#   4]+0.004*[#  11]+0.004*[#  12]
          +0.004*[#  13]
    |psi|^2 = 1.486
==== e(   4) =   -35.82933 eV ==== 
     psi = 0.213*[#   2]+0.213*[#   3]+0.213*[#   4]+0.003*[#  11]+0.003*[#  12]
          +0.003*[#  13]
    |psi|^2 = 0.650
==== e(   5) =    10.85146 eV ==== 
     psi = 0.553*[#  10]+0.125*[#  11]+0.125*[#  12]+0.125*[#  13]+0.055*[#   1]
          +0.003*[#   6]+0.003*[#   7]+0.003*[#   9]+0.001*[#   2]+0.001*[#   3]
          +0.001*[#   4]+0.001*[#   5]+0.001*[#   8]
    |psi|^2 = 1.000
==== e(   6) =    15.49851 eV ==== 
     psi = 0.327*[#   6]+0.327*[#   7]+0.327*[#   9]+0.009*[#  11]+0.009*[#  12]
          +0.009*[#  13]+0.004*[#   5]+0.004*[#   8]
    |psi|^2 = 1.018
==== e(   7) =    15.63082 eV ==== 
     psi = 0.301*[#   6]+0.301*[#   7]+0.301*[#   9]+0.037*[#   5]+0.037*[#   8]
          +0.004*[#  11]+0.004*[#  12]+0.004*[#  13]
    |psi|^2 = 0.990
==== e(   8) =    16.46669 eV ==== 
     psi = 0.328*[#   6]+0.328*[#   7]+0.328*[#   9]+0.003*[#  11]+0.003*[#  12]
          +0.003*[#  13]
    |psi|^2 = 0.994
==== e(   9) =    16.81663 eV ==== 
     psi = 0.458*[#   5]+0.458*[#   8]+0.026*[#   6]+0.026*[#   7]+0.026*[#   9]
          
    |psi|^2 = 0.995
==== e(  10) =    17.10623 eV ==== 
     psi = 0.492*[#   5]+0.492*[#   8]+0.004*[#   6]+0.004*[#   7]+0.004*[#   9]
          
    |psi|^2 = 0.996
==== e(  11) =    37.55073 eV ==== 
     psi = 0.106*[#  10]+0.090*[#  11]+0.090*[#  12]+0.090*[#  13]+0.012*[#   1]
          +0.004*[#   6]+0.004*[#   7]+0.004*[#   9]+0.003*[#   5]+0.003*[#   8]
          +0.001*[#   2]+0.001*[#   3]+0.001*[#   4]
    |psi|^2 = 0.409
==== e(  12) =    39.52413 eV ==== 
     psi = 0.073*[#  10]+0.027*[#  11]+0.027*[#  12]+0.027*[#  13]+0.009*[#   1]
          +0.002*[#   6]+0.002*[#   7]+0.002*[#   9]+0.001*[#   5]+0.001*[#   8]
          
    |psi|^2 = 0.172
==== e(  13) =    42.62476 eV ==== 
     psi = 0.037*[#  11]+0.037*[#  12]+0.037*[#  13]+0.004*[#  10]+0.001*[#   6]
          +0.001*[#   7]+0.001*[#   9]
    |psi|^2 = 0.120
==== e(  14) =    43.52067 eV ==== 
     psi = 0.211*[#  11]+0.211*[#  12]+0.211*[#  13]+0.151*[#  10]+0.017*[#   1]
          +0.003*[#   2]+0.003*[#   3]+0.003*[#   4]+0.002*[#   6]+0.002*[#   7]
          +0.002*[#   9]
    |psi|^2 = 0.817
==== e(  15) =    46.72982 eV ==== 
     psi = 0.045*[#  11]+0.045*[#  12]+0.045*[#  13]+0.025*[#  10]+0.003*[#   1]
          
    |psi|^2 = 0.167
==== e(  16) =    47.55180 eV ==== 
     psi = 0.241*[#  11]+0.241*[#  12]+0.241*[#  13]+0.040*[#  10]+0.004*[#   1]
          +0.003*[#   2]+0.003*[#   3]+0.003*[#   4]+0.001*[#   6]+0.001*[#   7]
          +0.001*[#   9]
    |psi|^2 = 0.781
==== e(  17) =    51.34136 eV ==== 
     psi = 0.019*[#  11]+0.019*[#  12]+0.019*[#  13]+0.004*[#  10]
    |psi|^2 = 0.064
==== e(  18) =    51.86081 eV ==== 
     psi = 0.015*[#  11]+0.015*[#  12]+0.015*[#  13]+0.007*[#  10]
    |psi|^2 = 0.058
==== e(  19) =    56.27402 eV ==== 
     psi = 0.032*[#  11]+0.032*[#  12]+0.032*[#  13]+0.013*[#  10]+0.001*[#   1]
          
    |psi|^2 = 0.114
==== e(  20) =    56.96367 eV ==== 
     psi = 0.030*[#  11]+0.030*[#  12]+0.030*[#  13]+0.002*[#  10]
    |psi|^2 = 0.095

 k =  -0.0666666667 -0.2000000000  0.2666666667
==== e(   1) =   -69.99345 eV ==== 
     psi = 0.900*[#   1]+0.033*[#  11]+0.033*[#  12]+0.033*[#  13]
    |psi|^2 = 1.000
==== e(   2) =   -36.01320 eV ==== 
     psi = 0.160*[#   2]+0.160*[#   3]+0.160*[#   4]+0.007*[#  10]+0.002*[#  11]
          +0.002*[#  12]+0.002*[#  13]
    |psi|^2 = 0.492
==== e(   3) =   -35.88353 eV ==== 
     psi = 0.496*[#   2]+0.496*[#   3]+0.496*[#   4]+0.004*[#  11]+0.004*[#  12]
          +0.004*[#  13]
    |psi|^2 = 1.500
==== e(   4) =   -35.82968 eV ==== 
     psi = 0.192*[#   2]+0.192*[#   3]+0.192*[#   4]+0.003*[#  11]+0.003*[#  12]
          +0.003*[#  13]
    |psi|^2 = 0.587
==== e(   5) =    11.76140 eV ==== 
     psi = 0.433*[#  10]+0.150*[#  11]+0.150*[#  12]+0.150*[#  13]+0.046*[#   1]
          +0.016*[#   6]+0.016*[#   7]+0.016*[#   9]+0.008*[#   5]+0.008*[#   8]
          +0.003*[#   2]+0.003*[#   3]+0.003*[#   4]
    |psi|^2 = 0.999
==== e(   6) =    15.28059 eV ==== 
     psi = 0.325*[#   6]+0.325*[#   7]+0.325*[#   9]+0.007*[#  11]+0.007*[#  12]
          +0.007*[#  13]+0.006*[#   5]+0.006*[#   8]
    |psi|^2 = 1.009
==== e(   7) =    15.54564 eV ==== 
     psi = 0.245*[#   6]+0.245*[#   7]+0.245*[#   9]+0.093*[#   5]+0.093*[#   8]
          +0.012*[#  11]+0.012*[#  12]+0.012*[#  13]+0.004*[#   1]+0.002*[#  10]
          
    |psi|^2 = 0.965
==== e(   8) =    16.80560 eV ==== 
     psi = 0.391*[#   5]+0.391*[#   8]+0.071*[#   6]+0.071*[#   7]+0.071*[#   9]
          
    |psi|^2 = 0.996
==== e(   9) =    16.98682 eV ==== 
     psi = 0.320*[#   6]+0.320*[#   7]+0.320*[#   9]+0.007*[#   5]+0.007*[#   8]
          +0.007*[#  11]+0.007*[#  12]+0.007*[#  13]+0.001*[#   1]
    |psi|^2 = 0.998
==== e(  10) =    17.15506 eV ==== 
     psi = 0.487*[#   5]+0.487*[#   8]+0.006*[#   6]+0.006*[#   7]+0.006*[#   9]
          +0.003*[#  11]+0.003*[#  12]+0.003*[#  13]+0.002*[#  10]
    |psi|^2 = 1.003
==== e(  11) =    34.57855 eV ==== 
     psi = 0.311*[#  10]+0.093*[#  11]+0.093*[#  12]+0.093*[#  13]+0.027*[#   1]
          +0.008*[#   6]+0.008*[#   7]+0.008*[#   9]+0.005*[#   5]+0.005*[#   8]
          
    |psi|^2 = 0.653
==== e(  12) =    38.21612 eV ==== 
     psi = 0.073*[#  11]+0.073*[#  12]+0.073*[#  13]+0.061*[#  10]+0.006*[#   1]
          +0.002*[#   6]+0.002*[#   7]+0.002*[#   9]+0.002*[#   5]+0.002*[#   8]
          +0.001*[#   2]+0.001*[#   3]+0.001*[#   4]
    |psi|^2 = 0.299
==== e(  13) =    41.37306 eV ==== 
     psi = 0.229*[#  11]+0.229*[#  12]+0.229*[#  13]+0.067*[#  10]+0.006*[#   1]
          +0.003*[#   6]+0.003*[#   7]+0.003*[#   9]+0.003*[#   2]+0.003*[#   3]
          +0.003*[#   4]
    |psi|^2 = 0.777
==== e(  14) =    42.70476 eV ==== 
     psi = 0.219*[#  11]+0.219*[#  12]+0.219*[#  13]+0.036*[#  10]+0.003*[#   1]
          +0.002*[#   2]+0.002*[#   3]+0.002*[#   4]+0.002*[#   6]+0.002*[#   7]
          +0.002*[#   9]
    |psi|^2 = 0.710
==== e(  15) =    46.69895 eV ==== 
     psi = 0.079*[#  11]+0.079*[#  12]+0.079*[#  13]+0.024*[#  10]+0.002*[#   1]
          +0.001*[#   6]+0.001*[#   7]+0.001*[#   9]
    |psi|^2 = 0.268
==== e(  16) =    47.70980 eV ==== 
     psi = 0.037*[#  11]+0.037*[#  12]+0.037*[#  13]+0.036*[#  10]+0.003*[#   1]
          
    |psi|^2 = 0.152
==== e(  17) =    52.47089 eV ==== 
     psi = 0.011*[#  11]+0.011*[#  12]+0.011*[#  13]+0.005*[#  10]
    |psi|^2 = 0.038
==== e(  18) =    54.11802 eV ==== 
     psi = 0.011*[#  11]+0.011*[#  12]+0.011*[#  13]+0.002*[#  10]
    |psi|^2 = 0.038
==== e(  19) =    58.39314 eV ==== 
     psi = 0.021*[#  11]+0.021*[#  12]+0.021*[#  13]+0.002*[#  10]
    |psi|^2 = 0.066
==== e(  20) =    59.89191 eV ==== 
     psi = 0.017*[#  11]+0.017*[#  12]+0.017*[#  13]
    |psi|^2 = 0.054

 k =  -0.0666666667 -0.2666666667  0.3333333333
==== e(   1) =   -69.97782 eV ==== 
     psi = 0.923*[#   1]+0.025*[#  11]+0.025*[#  12]+0.025*[#  13]+0.002*[#  10]
          
    |psi|^2 = 1.000
==== e(   2) =   -36.09216 eV ==== 
     psi = 0.159*[#   2]+0.159*[#   3]+0.159*[#   4]+0.005*[#  10]+0.002*[#  11]
          +0.002*[#  12]+0.002*[#  13]
    |psi|^2 = 0.489
==== e(   3) =   -35.91365 eV ==== 
     psi = 0.498*[#   2]+0.498*[#   3]+0.498*[#   4]+0.004*[#  11]+0.004*[#  12]
          +0.004*[#  13]
    |psi|^2 = 1.508
==== e(   4) =   -35.82981 eV ==== 
     psi = 0.180*[#   2]+0.180*[#   3]+0.180*[#   4]+0.003*[#  11]+0.003*[#  12]
          +0.003*[#  13]
    |psi|^2 = 0.549
==== e(   5) =    12.65174 eV ==== 
     psi = 0.340*[#  10]+0.128*[#  11]+0.128*[#  12]+0.128*[#  13]+0.057*[#   6]
          +0.057*[#   7]+0.057*[#   9]+0.034*[#   5]+0.034*[#   8]+0.026*[#   1]
          +0.003*[#   2]+0.003*[#   3]+0.003*[#   4]
    |psi|^2 = 0.997
==== e(   6) =    15.06163 eV ==== 
     psi = 0.325*[#   6]+0.325*[#   7]+0.325*[#   9]+0.007*[#  11]+0.007*[#  12]
          +0.007*[#  13]+0.005*[#   5]+0.005*[#   8]
    |psi|^2 = 1.005
==== e(   7) =    15.66273 eV ==== 
     psi = 0.161*[#   6]+0.161*[#   7]+0.161*[#   9]+0.135*[#   5]+0.135*[#   8]
          +0.036*[#  11]+0.036*[#  12]+0.036*[#  13]+0.015*[#  10]+0.011*[#   1]
          
    |psi|^2 = 0.887
==== e(   8) =    16.89737 eV ==== 
     psi = 0.327*[#   5]+0.327*[#   8]+0.113*[#   6]+0.113*[#   7]+0.113*[#   9]
          
    |psi|^2 = 0.995
==== e(   9) =    17.20479 eV ==== 
     psi = 0.477*[#   5]+0.477*[#   8]+0.012*[#   6]+0.012*[#   7]+0.012*[#   9]
          +0.003*[#  10]+0.002*[#  11]+0.002*[#  12]+0.002*[#  13]
    |psi|^2 = 0.998
==== e(  10) =    17.59743 eV ==== 
     psi = 0.308*[#   6]+0.308*[#   7]+0.308*[#   9]+0.011*[#   5]+0.011*[#   8]
          +0.008*[#  11]+0.008*[#  12]+0.008*[#  13]+0.005*[#  10]+0.002*[#   1]
          
    |psi|^2 = 0.978
==== e(  11) =    31.55453 eV ==== 
     psi = 0.472*[#  10]+0.087*[#  11]+0.087*[#  12]+0.087*[#  13]+0.026*[#   1]
          +0.016*[#   6]+0.016*[#   7]+0.016*[#   9]+0.007*[#   5]+0.007*[#   8]
          
    |psi|^2 = 0.821
==== e(  12) =    37.05675 eV ==== 
     psi = 0.112*[#  11]+0.112*[#  12]+0.112*[#  13]+0.046*[#  10]+0.004*[#   1]
          +0.003*[#   6]+0.003*[#   7]+0.003*[#   9]+0.002*[#   2]+0.002*[#   3]
          +0.002*[#   4]+0.002*[#   5]+0.002*[#   8]
    |psi|^2 = 0.401
==== e(  13) =    39.80717 eV ==== 
     psi = 0.272*[#  11]+0.272*[#  12]+0.272*[#  13]+0.047*[#  10]+0.003*[#   6]
          +0.003*[#   7]+0.003*[#   9]+0.003*[#   1]+0.003*[#   2]+0.003*[#   3]
          +0.003*[#   4]
    |psi|^2 = 0.883
==== e(  14) =    42.43760 eV ==== 
     psi = 0.248*[#  11]+0.248*[#  12]+0.248*[#  13]+0.013*[#  10]+0.002*[#   2]
          +0.002*[#   3]+0.002*[#   4]+0.002*[#   6]+0.002*[#   7]+0.002*[#   9]
          
    |psi|^2 = 0.773
==== e(  15) =    46.27800 eV ==== 
     psi = 0.036*[#  11]+0.036*[#  12]+0.036*[#  13]+0.028*[#  10]+0.001*[#   1]
          
    |psi|^2 = 0.142
==== e(  16) =    48.99600 eV ==== 
     psi = 0.026*[#  11]+0.026*[#  12]+0.026*[#  13]+0.014*[#  10]
    |psi|^2 = 0.096
==== e(  17) =    53.14734 eV ==== 
     psi = 0.012*[#  11]+0.012*[#  12]+0.012*[#  13]
    |psi|^2 = 0.038
==== e(  18) =    56.92495 eV ==== 
     psi = 0.006*[#  11]+0.006*[#  12]+0.006*[#  13]
    |psi|^2 = 0.020
==== e(  19) =    60.76633 eV ==== 
     psi = 0.012*[#  11]+0.012*[#  12]+0.012*[#  13]
    |psi|^2 = 0.036
==== e(  20) =    62.85801 eV ==== 
     psi = 0.007*[#  11]+0.007*[#  12]+0.007*[#  13]
    |psi|^2 = 0.021

 k =  -0.0666666667 -0.3333333333  0.4000000000
==== e(   1) =   -69.96419 eV ==== 
     psi = 0.956*[#   1]+0.014*[#  11]+0.014*[#  12]+0.014*[#  13]+0.002*[#  10]
          
    |psi|^2 = 1.000
==== e(   2) =   -36.16031 eV ==== 
     psi = 0.160*[#   2]+0.160*[#   3]+0.160*[#   4]+0.003*[#  11]+0.003*[#  12]
          +0.003*[#  13]+0.002*[#  10]
    |psi|^2 = 0.490
==== e(   3) =   -35.93996 eV ==== 
     psi = 0.498*[#   2]+0.498*[#   3]+0.498*[#   4]+0.005*[#  11]+0.005*[#  12]
          +0.005*[#  13]
    |psi|^2 = 1.510
==== e(   4) =   -35.82989 eV ==== 
     psi = 0.172*[#   2]+0.172*[#   3]+0.172*[#   4]+0.003*[#  11]+0.003*[#  12]
          +0.003*[#  13]
    |psi|^2 = 0.525
==== e(   5) =    13.14467 eV ==== 
     psi = 0.254*[#  10]+0.121*[#   6]+0.121*[#   7]+0.121*[#   9]+0.090*[#   5]
          +0.090*[#   8]+0.061*[#  11]+0.061*[#  12]+0.061*[#  13]+0.007*[#   1]
          +0.002*[#   2]+0.002*[#   3]+0.002*[#   4]
    |psi|^2 = 0.994
==== e(   6) =    14.87926 eV ==== 
     psi = 0.326*[#   6]+0.326*[#   7]+0.326*[#   9]+0.007*[#  11]+0.007*[#  12]
          +0.007*[#  13]+0.003*[#   5]+0.003*[#   8]
    |psi|^2 = 1.003
==== e(   7) =    16.24519 eV ==== 
     psi = 0.181*[#   5]+0.181*[#   8]+0.065*[#   6]+0.065*[#   7]+0.065*[#   9]
          +0.063*[#  11]+0.063*[#  12]+0.063*[#  13]+0.035*[#  10]+0.011*[#   1]
          +0.001*[#   2]+0.001*[#   3]+0.001*[#   4]
    |psi|^2 = 0.796
==== e(   8) =    17.03766 eV ==== 
     psi = 0.275*[#   5]+0.275*[#   8]+0.142*[#   6]+0.142*[#   7]+0.142*[#   9]
          +0.004*[#  11]+0.004*[#  12]+0.004*[#  13]
    |psi|^2 = 0.987
==== e(   9) =    17.31093 eV ==== 
     psi = 0.426*[#   5]+0.426*[#   8]+0.029*[#   6]+0.029*[#   7]+0.029*[#   9]
          +0.016*[#  11]+0.016*[#  12]+0.016*[#  13]+0.009*[#  10]+0.001*[#   1]
          
    |psi|^2 = 0.998
==== e(  10) =    18.25153 eV ==== 
     psi = 0.280*[#   6]+0.280*[#   7]+0.280*[#   9]+0.018*[#  11]+0.018*[#  12]
          +0.018*[#  13]+0.013*[#  10]+0.012*[#   5]+0.012*[#   8]+0.003*[#   1]
          
    |psi|^2 = 0.937
==== e(  11) =    28.73205 eV ==== 
     psi = 0.577*[#  10]+0.084*[#  11]+0.084*[#  12]+0.084*[#  13]+0.028*[#   6]
          +0.028*[#   7]+0.028*[#   9]+0.016*[#   1]+0.011*[#   5]+0.011*[#   8]
          
    |psi|^2 = 0.951
==== e(  12) =    36.13990 eV ==== 
     psi = 0.133*[#  11]+0.133*[#  12]+0.133*[#  13]+0.038*[#  10]+0.003*[#   6]
          +0.003*[#   7]+0.003*[#   9]+0.003*[#   1]+0.002*[#   2]+0.002*[#   3]
          +0.002*[#   4]+0.001*[#   5]+0.001*[#   8]
    |psi|^2 = 0.455
==== e(  13) =    38.54373 eV ==== 
     psi = 0.292*[#  11]+0.292*[#  12]+0.292*[#  13]+0.031*[#  10]+0.002*[#   2]
          +0.002*[#   3]+0.002*[#   4]+0.002*[#   6]+0.002*[#   7]+0.002*[#   9]
          +0.001*[#   1]
    |psi|^2 = 0.922
==== e(  14) =    42.25169 eV ==== 
     psi = 0.264*[#  11]+0.264*[#  12]+0.264*[#  13]+0.006*[#  10]+0.003*[#   6]
          +0.003*[#   7]+0.003*[#   9]+0.002*[#   2]+0.002*[#   3]+0.002*[#   4]
          
    |psi|^2 = 0.812
==== e(  15) =    46.11183 eV ==== 
     psi = 0.019*[#  10]+0.016*[#  11]+0.016*[#  12]+0.016*[#  13]
    |psi|^2 = 0.071
==== e(  16) =    50.24878 eV ==== 
     psi = 0.015*[#  11]+0.015*[#  12]+0.015*[#  13]+0.005*[#  10]
    |psi|^2 = 0.051
==== e(  17) =    53.85822 eV ==== 
     psi = 0.023*[#  11]+0.023*[#  12]+0.023*[#  13]
    |psi|^2 = 0.071
==== e(  18) =    60.14902 eV ==== 
     psi = 0.003*[#  11]+0.003*[#  12]+0.003*[#  13]
    |psi|^2 = 0.011
==== e(  19) =    61.78707 eV ==== 
     psi = 0.007*[#  11]+0.007*[#  12]+0.007*[#  13]+0.003*[#  10]
    |psi|^2 = 0.024
==== e(  20) =    64.12874 eV ==== 
     psi = 0.005*[#  11]+0.005*[#  12]+0.005*[#  13]
    |psi|^2 = 0.015

 k =  -0.0666666667 -0.4000000000  0.4666666667
==== e(   1) =   -69.95493 eV ==== 
     psi = 0.984*[#   1]+0.004*[#  11]+0.004*[#  12]+0.004*[#  13]+0.002*[#  10]
          
    |psi|^2 = 1.000
==== e(   2) =   -36.20627 eV ==== 
     psi = 0.161*[#   2]+0.161*[#   3]+0.161*[#   4]+0.004*[#  11]+0.004*[#  12]
          +0.004*[#  13]
    |psi|^2 = 0.494
==== e(   3) =   -35.95781 eV ==== 
     psi = 0.497*[#   2]+0.497*[#   3]+0.497*[#   4]+0.005*[#  11]+0.005*[#  12]
          +0.005*[#  13]
    |psi|^2 = 1.507
==== e(   4) =   -35.82993 eV ==== 
     psi = 0.168*[#   2]+0.168*[#   3]+0.168*[#   4]+0.002*[#  11]+0.002*[#  12]
          +0.002*[#  13]
    |psi|^2 = 0.510
==== e(   5) =    13.25482 eV ==== 
     psi = 0.207*[#  10]+0.155*[#   6]+0.155*[#   7]+0.155*[#   9]+0.132*[#   5]
          +0.132*[#   8]+0.019*[#  11]+0.019*[#  12]+0.019*[#  13]+0.001*[#   1]
          
    |psi|^2 = 0.993
==== e(   6) =    14.75930 eV ==== 
     psi = 0.327*[#   6]+0.327*[#   7]+0.327*[#   9]+0.006*[#  11]+0.006*[#  12]
          +0.006*[#  13]
    |psi|^2 = 1.001
==== e(   7) =    16.81660 eV ==== 
     psi = 0.340*[#   5]+0.340*[#   8]+0.038*[#  11]+0.038*[#  12]+0.038*[#  13]
          +0.026*[#   6]+0.026*[#   7]+0.026*[#   9]+0.014*[#  10]+0.002*[#   1]
          
    |psi|^2 = 0.888
==== e(   8) =    17.10437 eV ==== 
     psi = 0.329*[#   5]+0.329*[#   8]+0.106*[#   6]+0.106*[#   7]+0.106*[#   9]
          +0.004*[#  11]+0.004*[#  12]+0.004*[#  13]+0.004*[#  10]
    |psi|^2 = 0.989
==== e(   9) =    17.67124 eV ==== 
     psi = 0.161*[#   5]+0.161*[#   8]+0.142*[#   6]+0.142*[#   7]+0.142*[#   9]
          +0.077*[#  11]+0.077*[#  12]+0.077*[#  13]+0.010*[#  10]+0.002*[#   2]
          +0.002*[#   3]+0.002*[#   4]+0.002*[#   1]
    |psi|^2 = 0.999
==== e(  10) =    18.98936 eV ==== 
     psi = 0.190*[#   6]+0.190*[#   7]+0.190*[#   9]+0.057*[#  11]+0.057*[#  12]
          +0.057*[#  13]+0.021*[#  10]+0.018*[#   5]+0.018*[#   8]+0.003*[#   1]
          +0.001*[#   2]+0.001*[#   3]+0.001*[#   4]
    |psi|^2 = 0.803
==== e(  11) =    26.42513 eV ==== 
     psi = 0.660*[#  10]+0.103*[#  11]+0.103*[#  12]+0.103*[#  13]+0.048*[#   6]
          +0.048*[#   7]+0.048*[#   9]+0.016*[#   5]+0.016*[#   8]+0.006*[#   1]
          +0.001*[#   2]+0.001*[#   3]+0.001*[#   4]
    |psi|^2 = 1.152
==== e(  12) =    35.54996 eV ==== 
     psi = 0.144*[#  11]+0.144*[#  12]+0.144*[#  13]+0.034*[#  10]+0.003*[#   6]
          +0.003*[#   7]+0.003*[#   9]+0.002*[#   1]+0.002*[#   2]+0.002*[#   3]
          +0.002*[#   4]
    |psi|^2 = 0.482
==== e(  13) =    37.71780 eV ==== 
     psi = 0.301*[#  11]+0.301*[#  12]+0.301*[#  13]+0.024*[#  10]+0.002*[#   2]
          +0.002*[#   3]+0.002*[#   4]
    |psi|^2 = 0.937
==== e(  14) =    42.14056 eV ==== 
     psi = 0.270*[#  11]+0.270*[#  12]+0.270*[#  13]+0.003*[#   6]+0.003*[#   7]
          +0.003*[#   9]+0.003*[#  10]+0.002*[#   2]+0.002*[#   3]+0.002*[#   4]
          
    |psi|^2 = 0.826
==== e(  15) =    46.10204 eV ==== 
     psi = 0.013*[#  10]+0.007*[#  11]+0.007*[#  12]+0.007*[#  13]+0.001*[#   5]
          +0.001*[#   8]
    |psi|^2 = 0.038
==== e(  16) =    50.87427 eV ==== 
     psi = 0.005*[#  11]+0.005*[#  12]+0.005*[#  13]
    |psi|^2 = 0.017
==== e(  17) =    55.31435 eV ==== 
     psi = 0.030*[#  11]+0.030*[#  12]+0.030*[#  13]+0.002*[#  10]
    |psi|^2 = 0.093
==== e(  18) =    59.86941 eV ==== 
     psi = 0.010*[#  11]+0.010*[#  12]+0.010*[#  13]+0.003*[#  10]
    |psi|^2 = 0.034
==== e(  19) =    63.64143 eV ==== 
     psi = 0.012*[#  11]+0.012*[#  12]+0.012*[#  13]
    |psi|^2 = 0.038
==== e(  20) =    64.56855 eV ==== 
     psi = 0.001*[#  11]+0.001*[#  12]+0.001*[#  13]+0.001*[#  10]
    |psi|^2 = 0.005

 k =  -0.0666666667  0.5333333333 -0.4666666667
==== e(   1) =   -69.95165 eV ==== 
     psi = 0.995*[#   1]+0.002*[#  10]
    |psi|^2 = 1.000
==== e(   2) =   -36.22247 eV ==== 
     psi = 0.163*[#   2]+0.163*[#   3]+0.163*[#   4]+0.004*[#  11]+0.004*[#  12]
          +0.004*[#  13]
    |psi|^2 = 0.501
==== e(   3) =   -35.96412 eV ==== 
     psi = 0.494*[#   2]+0.494*[#   3]+0.494*[#   4]+0.005*[#  11]+0.005*[#  12]
          +0.005*[#  13]
    |psi|^2 = 1.499
==== e(   4) =   -35.82994 eV ==== 
     psi = 0.165*[#   2]+0.165*[#   3]+0.165*[#   4]+0.002*[#  11]+0.002*[#  12]
          +0.002*[#  13]
    |psi|^2 = 0.501
==== e(   5) =    13.25886 eV ==== 
     psi = 0.195*[#  10]+0.162*[#   6]+0.162*[#   7]+0.162*[#   9]+0.145*[#   5]
          +0.145*[#   8]+0.007*[#  11]+0.007*[#  12]+0.007*[#  13]
    |psi|^2 = 0.992
==== e(   6) =    14.71750 eV ==== 
     psi = 0.327*[#   6]+0.327*[#   7]+0.327*[#   9]+0.006*[#  11]+0.006*[#  12]
          +0.006*[#  13]
    |psi|^2 = 1.000
==== e(   7) =    16.98571 eV ==== 
     psi = 0.402*[#   5]+0.402*[#   8]+0.025*[#  11]+0.025*[#  12]+0.025*[#  13]
          +0.015*[#   6]+0.015*[#   7]+0.015*[#   9]
    |psi|^2 = 0.927
==== e(   8) =    17.08265 eV ==== 
     psi = 0.332*[#   5]+0.332*[#   8]+0.107*[#   6]+0.107*[#   7]+0.107*[#   9]
          +0.011*[#  10]
    |psi|^2 = 0.999
==== e(   9) =    17.91725 eV ==== 
     psi = 0.197*[#   6]+0.197*[#   7]+0.197*[#   9]+0.082*[#  11]+0.082*[#  12]
          +0.082*[#  13]+0.079*[#   5]+0.079*[#   8]+0.002*[#   2]+0.002*[#   3]
          +0.002*[#   4]
    |psi|^2 = 1.000
==== e(  10) =    19.47873 eV ==== 
     psi = 0.121*[#   6]+0.121*[#   7]+0.121*[#   9]+0.098*[#  11]+0.098*[#  12]
          +0.098*[#  13]+0.018*[#   5]+0.018*[#   8]+0.002*[#   2]+0.002*[#   3]
          +0.002*[#   4]
    |psi|^2 = 0.699
==== e(  11) =    25.39590 eV ==== 
     psi = 0.717*[#  10]+0.108*[#  11]+0.108*[#  12]+0.108*[#  13]+0.063*[#   6]
          +0.063*[#   7]+0.063*[#   9]+0.020*[#   5]+0.020*[#   8]+0.002*[#   2]
          +0.002*[#   3]+0.002*[#   4]+0.002*[#   1]
    |psi|^2 = 1.279
==== e(  12) =    35.34591 eV ==== 
     psi = 0.147*[#  11]+0.147*[#  12]+0.147*[#  13]+0.033*[#  10]+0.003*[#   6]
          +0.003*[#   7]+0.003*[#   9]+0.002*[#   1]+0.002*[#   2]+0.002*[#   3]
          +0.002*[#   4]
    |psi|^2 = 0.489
==== e(  13) =    37.42946 eV ==== 
     psi = 0.304*[#  11]+0.304*[#  12]+0.304*[#  13]+0.021*[#  10]+0.002*[#   2]
          +0.002*[#   3]+0.002*[#   4]
    |psi|^2 = 0.941
==== e(  14) =    42.10367 eV ==== 
     psi = 0.271*[#  11]+0.271*[#  12]+0.271*[#  13]+0.003*[#   6]+0.003*[#   7]
          +0.003*[#   9]+0.002*[#  10]+0.001*[#   2]+0.001*[#   3]+0.001*[#   4]
          
    |psi|^2 = 0.829
==== e(  15) =    46.11885 eV ==== 
     psi = 0.011*[#  10]+0.005*[#  11]+0.005*[#  12]+0.005*[#  13]+0.001*[#   5]
          +0.001*[#   8]
    |psi|^2 = 0.027
==== e(  16) =    50.99420 eV ==== 
     psi = 0.002*[#  11]+0.002*[#  12]+0.002*[#  13]
    |psi|^2 = 0.007
==== e(  17) =    57.38486 eV ==== 

    |psi|^2 = 0.001
==== e(  18) =    57.56531 eV ==== 
     psi = 0.027*[#  11]+0.027*[#  12]+0.027*[#  13]+0.004*[#  10]
    |psi|^2 = 0.086
==== e(  19) =    64.50464 eV ==== 
     psi = 0.027*[#  11]+0.027*[#  12]+0.027*[#  13]+0.001*[#  10]
    |psi|^2 = 0.085
==== e(  20) =    66.30983 eV ==== 

    |psi|^2 = 0.001

 k =  -0.1333333333 -0.1333333333  0.2666666667
==== e(   1) =   -69.99569 eV ==== 
     psi = 0.896*[#   1]+0.035*[#  11]+0.035*[#  12]+0.035*[#  13]
    |psi|^2 = 1.000
==== e(   2) =   -35.99939 eV ==== 
     psi = 0.161*[#   2]+0.161*[#   3]+0.161*[#   4]+0.008*[#  10]+0.005*[#  11]
          +0.005*[#  12]+0.005*[#  13]
    |psi|^2 = 0.508
==== e(   3) =   -35.87215 eV ==== 
     psi = 0.499*[#   2]+0.499*[#   3]+0.499*[#   4]+0.004*[#  11]+0.004*[#  12]
          +0.004*[#  13]
    |psi|^2 = 1.508
==== e(   4) =   -35.83925 eV ==== 
     psi = 0.249*[#   2]+0.249*[#   3]+0.249*[#   4]+0.003*[#  11]+0.003*[#  12]
          +0.003*[#  13]
    |psi|^2 = 0.756
==== e(   5) =    11.63685 eV ==== 
     psi = 0.444*[#  10]+0.153*[#  11]+0.153*[#  12]+0.153*[#  13]+0.049*[#   1]
          +0.011*[#   6]+0.011*[#   7]+0.011*[#   9]+0.005*[#   5]+0.005*[#   8]
          +0.002*[#   2]+0.002*[#   3]+0.002*[#   4]
    |psi|^2 = 1.000
==== e(   6) =    15.39210 eV ==== 
     psi = 0.319*[#   6]+0.319*[#   7]+0.319*[#   9]+0.026*[#  11]+0.026*[#  12]
          +0.026*[#  13]+0.008*[#   5]+0.008*[#   8]+0.001*[#   1]
    |psi|^2 = 1.054
==== e(   7) =    15.41711 eV ==== 
     psi = 0.273*[#   6]+0.273*[#   7]+0.273*[#   9]+0.076*[#   5]+0.076*[#   8]
          +0.013*[#  11]+0.013*[#  12]+0.013*[#  13]
    |psi|^2 = 1.008
==== e(   8) =    16.75152 eV ==== 
     psi = 0.419*[#   5]+0.419*[#   8]+0.052*[#   6]+0.052*[#   7]+0.052*[#   9]
          
    |psi|^2 = 0.995
==== e(   9) =    16.96025 eV ==== 
     psi = 0.319*[#   6]+0.319*[#   7]+0.319*[#   9]+0.009*[#  11]+0.009*[#  12]
          +0.009*[#  13]+0.005*[#   5]+0.005*[#   8]+0.002*[#   1]+0.001*[#  10]
          
    |psi|^2 = 0.997
==== e(  10) =    17.18465 eV ==== 
     psi = 0.480*[#   5]+0.480*[#   8]+0.009*[#   6]+0.009*[#   7]+0.009*[#   9]
          +0.003*[#  10]+0.003*[#  11]+0.003*[#  12]+0.003*[#  13]
    |psi|^2 = 1.001
==== e(  11) =    35.88568 eV ==== 
     psi = 0.199*[#  11]+0.199*[#  12]+0.199*[#  13]+0.006*[#   6]+0.006*[#   7]
          +0.006*[#   9]+0.005*[#   5]+0.005*[#   8]+0.002*[#   2]+0.002*[#   3]
          +0.002*[#   4]
    |psi|^2 = 0.633
==== e(  12) =    37.02524 eV ==== 
     psi = 0.333*[#  10]+0.032*[#   1]+0.005*[#   6]+0.005*[#   7]+0.005*[#   9]
          +0.002*[#  11]+0.002*[#  12]+0.002*[#  13]
    |psi|^2 = 0.387
==== e(  13) =    41.47685 eV ==== 
     psi = 0.213*[#  11]+0.213*[#  12]+0.213*[#  13]+0.135*[#  10]+0.012*[#   1]
          +0.003*[#   2]+0.003*[#   3]+0.003*[#   4]+0.002*[#   6]+0.002*[#   7]
          +0.002*[#   9]
    |psi|^2 = 0.802
==== e(  14) =    43.07417 eV ==== 
     psi = 0.118*[#  11]+0.118*[#  12]+0.118*[#  13]+0.001*[#   2]+0.001*[#   3]
          +0.001*[#   4]+0.001*[#   6]+0.001*[#   7]+0.001*[#   9]
    |psi|^2 = 0.363
==== e(  15) =    46.70706 eV ==== 
     psi = 0.036*[#  10]+0.021*[#  11]+0.021*[#  12]+0.021*[#  13]+0.004*[#   1]
          
    |psi|^2 = 0.105
==== e(  16) =    48.83572 eV ==== 
     psi = 0.089*[#  11]+0.089*[#  12]+0.089*[#  13]
    |psi|^2 = 0.271
==== e(  17) =    52.08873 eV ==== 
     psi = 0.022*[#  11]+0.022*[#  12]+0.022*[#  13]+0.021*[#  10]+0.002*[#   1]
          
    |psi|^2 = 0.092
==== e(  18) =    53.25666 eV ==== 
     psi = 0.020*[#  11]+0.020*[#  12]+0.020*[#  13]
    |psi|^2 = 0.061
==== e(  19) =    57.10431 eV ==== 
     psi = 0.012*[#  11]+0.012*[#  12]+0.012*[#  13]+0.004*[#  10]
    |psi|^2 = 0.041
==== e(  20) =    59.66422 eV ==== 
     psi = 0.023*[#  11]+0.023*[#  12]+0.023*[#  13]+0.001*[#  10]
    |psi|^2 = 0.072

 k =  -0.1333333333 -0.2000000000  0.3333333333
==== e(   1) =   -69.98110 eV ==== 
     psi = 0.913*[#   1]+0.028*[#  11]+0.028*[#  12]+0.028*[#  13]+0.002*[#  10]
          
    |psi|^2 = 1.000
==== e(   2) =   -36.06704 eV ==== 
     psi = 0.158*[#   2]+0.158*[#   3]+0.158*[#   4]+0.006*[#  10]+0.003*[#  11]
          +0.003*[#  12]+0.003*[#  13]
    |psi|^2 = 0.491
==== e(   3) =   -35.90227 eV ==== 
     psi = 0.500*[#   2]+0.500*[#   3]+0.500*[#   4]+0.004*[#  11]+0.004*[#  12]
          +0.004*[#  13]
    |psi|^2 = 1.513
==== e(   4) =   -35.84369 eV ==== 
     psi = 0.221*[#   2]+0.221*[#   3]+0.221*[#   4]+0.003*[#  11]+0.003*[#  12]
          +0.003*[#  13]
    |psi|^2 = 0.672
==== e(   5) =    12.55181 eV ==== 
     psi = 0.351*[#  10]+0.155*[#  11]+0.155*[#  12]+0.155*[#  13]+0.035*[#   1]
          +0.034*[#   6]+0.034*[#   7]+0.034*[#   9]+0.017*[#   5]+0.017*[#   8]
          +0.003*[#   2]+0.003*[#   3]+0.003*[#   4]
    |psi|^2 = 0.999
==== e(   6) =    15.16402 eV ==== 
     psi = 0.280*[#   6]+0.280*[#   7]+0.280*[#   9]+0.062*[#   5]+0.062*[#   8]
          +0.028*[#  11]+0.028*[#  12]+0.028*[#  13]
    |psi|^2 = 1.049
==== e(   7) =    15.34191 eV ==== 
     psi = 0.259*[#   6]+0.259*[#   7]+0.259*[#   9]+0.065*[#   5]+0.065*[#   8]
          +0.011*[#  11]+0.011*[#  12]+0.011*[#  13]+0.004*[#   1]+0.003*[#  10]
          
    |psi|^2 = 0.948
==== e(   8) =    16.77928 eV ==== 
     psi = 0.364*[#   5]+0.364*[#   8]+0.089*[#   6]+0.089*[#   7]+0.089*[#   9]
          +0.004*[#  11]+0.004*[#  12]+0.004*[#  13]
    |psi|^2 = 1.006
==== e(   9) =    17.23655 eV ==== 
     psi = 0.436*[#   5]+0.436*[#   8]+0.040*[#   6]+0.040*[#   7]+0.040*[#   9]
          +0.003*[#  10]
    |psi|^2 = 0.998
==== e(  10) =    17.63623 eV ==== 
     psi = 0.274*[#   6]+0.274*[#   7]+0.274*[#   9]+0.044*[#   5]+0.044*[#   8]
          +0.011*[#  11]+0.011*[#  12]+0.011*[#  13]+0.011*[#  10]+0.004*[#   1]
          
    |psi|^2 = 0.960
==== e(  11) =    33.25227 eV ==== 
     psi = 0.220*[#  10]+0.176*[#  11]+0.176*[#  12]+0.176*[#  13]+0.015*[#   1]
          +0.012*[#   6]+0.012*[#   7]+0.012*[#   9]+0.006*[#   5]+0.006*[#   8]
          +0.001*[#   2]+0.001*[#   3]+0.001*[#   4]
    |psi|^2 = 0.815
==== e(  12) =    35.40610 eV ==== 
     psi = 0.268*[#  10]+0.087*[#  11]+0.087*[#  12]+0.087*[#  13]+0.020*[#   1]
          +0.006*[#   6]+0.006*[#   7]+0.006*[#   9]+0.002*[#   5]+0.002*[#   8]
          +0.001*[#   2]+0.001*[#   3]+0.001*[#   4]
    |psi|^2 = 0.574
==== e(  13) =    39.88704 eV ==== 
     psi = 0.243*[#  11]+0.243*[#  12]+0.243*[#  13]+0.080*[#  10]+0.004*[#   1]
          +0.003*[#   2]+0.003*[#   3]+0.003*[#   4]+0.002*[#   6]+0.002*[#   7]
          +0.002*[#   9]
    |psi|^2 = 0.831
==== e(  14) =    43.14685 eV ==== 
     psi = 0.154*[#  11]+0.154*[#  12]+0.154*[#  13]+0.005*[#  10]+0.001*[#   2]
          +0.001*[#   3]+0.001*[#   4]+0.001*[#   6]+0.001*[#   7]+0.001*[#   9]
          
    |psi|^2 = 0.478
==== e(  15) =    47.14915 eV ==== 
     psi = 0.022*[#  11]+0.022*[#  12]+0.022*[#  13]+0.015*[#  10]+0.001*[#   1]
          
    |psi|^2 = 0.085
==== e(  16) =    49.23815 eV ==== 
     psi = 0.037*[#  11]+0.037*[#  12]+0.037*[#  13]+0.012*[#  10]
    |psi|^2 = 0.126
==== e(  17) =    53.72372 eV ==== 
     psi = 0.010*[#  10]+0.008*[#  11]+0.008*[#  12]+0.008*[#  13]
    |psi|^2 = 0.036
==== e(  18) =    54.96532 eV ==== 
     psi = 0.014*[#  11]+0.014*[#  12]+0.014*[#  13]
    |psi|^2 = 0.044
==== e(  19) =    58.47418 eV ==== 
     psi = 0.015*[#  11]+0.015*[#  12]+0.015*[#  13]
    |psi|^2 = 0.044
==== e(  20) =    62.47847 eV ==== 
     psi = 0.008*[#  11]+0.008*[#  12]+0.008*[#  13]
    |psi|^2 = 0.023

 k =  -0.1333333333 -0.2666666667  0.4000000000
==== e(   1) =   -69.96712 eV ==== 
     psi = 0.941*[#   1]+0.019*[#  11]+0.019*[#  12]+0.019*[#  13]+0.003*[#  10]
          
    |psi|^2 = 1.000
==== e(   2) =   -36.12921 eV ==== 
     psi = 0.156*[#   2]+0.156*[#   3]+0.156*[#   4]+0.003*[#  10]+0.003*[#  11]
          +0.003*[#  12]+0.003*[#  13]
    |psi|^2 = 0.481
==== e(   3) =   -35.93558 eV ==== 
     psi = 0.503*[#   2]+0.503*[#   3]+0.503*[#   4]+0.004*[#  11]+0.004*[#  12]
          +0.004*[#  13]
    |psi|^2 = 1.522
==== e(   4) =   -35.84547 eV ==== 
     psi = 0.198*[#   2]+0.198*[#   3]+0.198*[#   4]+0.003*[#  11]+0.003*[#  12]
          +0.003*[#  13]
    |psi|^2 = 0.602
==== e(   5) =    13.26310 eV ==== 
     psi = 0.258*[#  10]+0.106*[#  11]+0.106*[#  12]+0.106*[#  13]+0.095*[#   6]
          +0.095*[#   7]+0.095*[#   9]+0.057*[#   5]+0.057*[#   8]+0.015*[#   1]
          +0.002*[#   2]+0.002*[#   3]+0.002*[#   4]
    |psi|^2 = 0.996
==== e(   6) =    14.96455 eV ==== 
     psi = 0.292*[#   6]+0.292*[#   7]+0.292*[#   9]+0.042*[#   5]+0.042*[#   8]
          +0.026*[#  11]+0.026*[#  12]+0.026*[#  13]
    |psi|^2 = 1.041
==== e(   7) =    15.53254 eV ==== 
     psi = 0.169*[#   6]+0.169*[#   7]+0.169*[#   9]+0.112*[#   5]+0.112*[#   8]
          +0.033*[#  11]+0.033*[#  12]+0.033*[#  13]+0.019*[#  10]+0.008*[#   1]
          
    |psi|^2 = 0.859
==== e(   8) =    16.89394 eV ==== 
     psi = 0.314*[#   5]+0.314*[#   8]+0.121*[#   6]+0.121*[#   7]+0.121*[#   9]
          +0.004*[#  11]+0.004*[#  12]+0.004*[#  13]
    |psi|^2 = 1.002
==== e(   9) =    17.31929 eV ==== 
     psi = 0.429*[#   5]+0.429*[#   8]+0.040*[#   6]+0.040*[#   7]+0.040*[#   9]
          +0.009*[#  10]+0.004*[#  11]+0.004*[#  12]+0.004*[#  13]
    |psi|^2 = 0.999
==== e(  10) =    18.43631 eV ==== 
     psi = 0.249*[#   6]+0.249*[#   7]+0.249*[#   9]+0.032*[#   5]+0.032*[#   8]
          +0.027*[#  10]+0.022*[#  11]+0.022*[#  12]+0.022*[#  13]+0.006*[#   1]
          
    |psi|^2 = 0.909
==== e(  11) =    30.33396 eV ==== 
     psi = 0.401*[#  10]+0.155*[#  11]+0.155*[#  12]+0.155*[#  13]+0.021*[#   6]
          +0.021*[#   7]+0.021*[#   9]+0.015*[#   1]+0.009*[#   5]+0.009*[#   8]
          
    |psi|^2 = 0.963
==== e(  12) =    34.35502 eV ==== 
     psi = 0.197*[#  10]+0.141*[#  11]+0.141*[#  12]+0.141*[#  13]+0.012*[#   1]
          +0.008*[#   6]+0.008*[#   7]+0.008*[#   9]+0.003*[#   5]+0.003*[#   8]
          +0.001*[#   2]+0.001*[#   3]+0.001*[#   4]
    |psi|^2 = 0.663
==== e(  13) =    38.60663 eV ==== 
     psi = 0.268*[#  11]+0.268*[#  12]+0.268*[#  13]+0.045*[#  10]+0.003*[#   2]
          +0.003*[#   3]+0.003*[#   4]+0.002*[#   6]+0.002*[#   7]+0.002*[#   9]
          +0.001*[#   1]
    |psi|^2 = 0.866
==== e(  14) =    43.10011 eV ==== 
     psi = 0.168*[#  11]+0.168*[#  12]+0.168*[#  13]+0.006*[#  10]+0.002*[#   6]
          +0.002*[#   7]+0.002*[#   9]+0.001*[#   2]+0.001*[#   3]+0.001*[#   4]
          
    |psi|^2 = 0.521
==== e(  15) =    47.77063 eV ==== 
     psi = 0.019*[#  11]+0.019*[#  12]+0.019*[#  13]+0.001*[#  10]
    |psi|^2 = 0.063
==== e(  16) =    49.36280 eV ==== 
     psi = 0.015*[#  10]+0.012*[#  11]+0.012*[#  12]+0.012*[#  13]
    |psi|^2 = 0.054
==== e(  17) =    55.20294 eV ==== 
     psi = 0.005*[#  11]+0.005*[#  12]+0.005*[#  13]
    |psi|^2 = 0.016
==== e(  18) =    57.14996 eV ==== 
     psi = 0.011*[#  11]+0.011*[#  12]+0.011*[#  13]+0.004*[#  10]
    |psi|^2 = 0.039
==== e(  19) =    60.01956 eV ==== 
     psi = 0.015*[#  11]+0.015*[#  12]+0.015*[#  13]+0.003*[#  10]
    |psi|^2 = 0.047
==== e(  20) =    63.75786 eV ==== 
     psi = 0.003*[#  10]+0.002*[#  11]+0.002*[#  12]+0.002*[#  13]
    |psi|^2 = 0.010

 k =  -0.1333333333 -0.3333333333  0.4666666667
==== e(   1) =   -69.95619 eV ==== 
     psi = 0.970*[#   1]+0.009*[#  11]+0.009*[#  12]+0.009*[#  13]+0.003*[#  10]
          
    |psi|^2 = 1.000
==== e(   2) =   -36.17658 eV ==== 
     psi = 0.157*[#   2]+0.157*[#   3]+0.157*[#   4]+0.003*[#  11]+0.003*[#  12]
          +0.003*[#  13]+0.001*[#  10]
    |psi|^2 = 0.481
==== e(   3) =   -35.96301 eV ==== 
     psi = 0.503*[#   2]+0.503*[#   3]+0.503*[#   4]+0.004*[#  11]+0.004*[#  12]
          +0.004*[#  13]
    |psi|^2 = 1.522
==== e(   4) =   -35.84632 eV ==== 
     psi = 0.181*[#   2]+0.181*[#   3]+0.181*[#   4]+0.002*[#  11]+0.002*[#  12]
          +0.002*[#  13]
    |psi|^2 = 0.551
==== e(   5) =    13.50332 eV ==== 
     psi = 0.183*[#  10]+0.148*[#   6]+0.148*[#   7]+0.148*[#   9]+0.111*[#   5]
          +0.111*[#   8]+0.046*[#  11]+0.046*[#  12]+0.046*[#  13]+0.003*[#   1]
          
    |psi|^2 = 0.994
==== e(   6) =    14.83338 eV ==== 
     psi = 0.309*[#   6]+0.309*[#   7]+0.309*[#   9]+0.023*[#  11]+0.023*[#  12]
          +0.023*[#  13]+0.019*[#   5]+0.019*[#   8]
    |psi|^2 = 1.035
==== e(   7) =    16.01694 eV ==== 
     psi = 0.183*[#   5]+0.183*[#   8]+0.092*[#   6]+0.092*[#   7]+0.092*[#   9]
          +0.050*[#  11]+0.050*[#  12]+0.050*[#  13]+0.020*[#  10]+0.005*[#   1]
          +0.001*[#   2]+0.001*[#   3]+0.001*[#   4]
    |psi|^2 = 0.820
==== e(   8) =    17.01925 eV ==== 
     psi = 0.302*[#   5]+0.302*[#   8]+0.127*[#   6]+0.127*[#   7]+0.127*[#   9]
          +0.004*[#  11]+0.004*[#  12]+0.004*[#  13]+0.003*[#  10]
    |psi|^2 = 1.000
==== e(   9) =    17.46864 eV ==== 
     psi = 0.333*[#   5]+0.333*[#   8]+0.091*[#   6]+0.091*[#   7]+0.091*[#   9]
          +0.016*[#  11]+0.016*[#  12]+0.016*[#  13]+0.010*[#  10]
    |psi|^2 = 0.999
==== e(  10) =    19.42493 eV ==== 
     psi = 0.184*[#   6]+0.184*[#   7]+0.184*[#   9]+0.045*[#  11]+0.045*[#  12]
          +0.045*[#  13]+0.044*[#  10]+0.034*[#   5]+0.034*[#   8]+0.005*[#   1]
          
    |psi|^2 = 0.805
==== e(  11) =    27.67604 eV ==== 
     psi = 0.512*[#  10]+0.159*[#  11]+0.159*[#  12]+0.159*[#  13]+0.035*[#   6]
          +0.035*[#   7]+0.035*[#   9]+0.013*[#   5]+0.013*[#   8]+0.008*[#   1]
          +0.001*[#   2]+0.001*[#   3]+0.001*[#   4]
    |psi|^2 = 1.134
==== e(  12) =    33.61889 eV ==== 
     psi = 0.166*[#  10]+0.165*[#  11]+0.165*[#  12]+0.165*[#  13]+0.008*[#   1]
          +0.008*[#   6]+0.008*[#   7]+0.008*[#   9]+0.003*[#   5]+0.003*[#   8]
          +0.001*[#   2]+0.001*[#   3]+0.001*[#   4]
    |psi|^2 = 0.702
==== e(  13) =    37.69043 eV ==== 
     psi = 0.282*[#  11]+0.282*[#  12]+0.282*[#  13]+0.028*[#  10]+0.003*[#   2]
          +0.003*[#   3]+0.003*[#   4]+0.001*[#   6]+0.001*[#   7]+0.001*[#   9]
          
    |psi|^2 = 0.889
==== e(  14) =    43.04429 eV ==== 
     psi = 0.173*[#  11]+0.173*[#  12]+0.173*[#  13]+0.005*[#  10]+0.002*[#   6]
          +0.002*[#   7]+0.002*[#   9]+0.001*[#   2]+0.001*[#   3]+0.001*[#   4]
          
    |psi|^2 = 0.533
==== e(  15) =    48.25401 eV ==== 
     psi = 0.010*[#  11]+0.010*[#  12]+0.010*[#  13]
    |psi|^2 = 0.034
==== e(  16) =    49.57826 eV ==== 
     psi = 0.007*[#  10]+0.005*[#  11]+0.005*[#  12]+0.005*[#  13]
    |psi|^2 = 0.023
==== e(  17) =    55.93350 eV ==== 
     psi = 0.022*[#  11]+0.022*[#  12]+0.022*[#  13]+0.003*[#  10]
    |psi|^2 = 0.070
==== e(  18) =    59.96846 eV ==== 
     psi = 0.008*[#  11]+0.008*[#  12]+0.008*[#  13]+0.007*[#  10]
    |psi|^2 = 0.031
==== e(  19) =    60.41977 eV ==== 
     psi = 0.010*[#  11]+0.010*[#  12]+0.010*[#  13]
    |psi|^2 = 0.033
==== e(  20) =    64.77283 eV ==== 
     psi = 0.003*[#  11]+0.003*[#  12]+0.003*[#  13]
    |psi|^2 = 0.008

 k =  -0.1333333333  0.6000000000 -0.4666666667
==== e(   1) =   -69.95020 eV ==== 
     psi = 0.989*[#   1]+0.003*[#  10]+0.002*[#  11]+0.002*[#  12]+0.002*[#  13]
          
    |psi|^2 = 1.000
==== e(   2) =   -36.20214 eV ==== 
     psi = 0.160*[#   2]+0.160*[#   3]+0.160*[#   4]+0.004*[#  11]+0.004*[#  12]
          +0.004*[#  13]
    |psi|^2 = 0.492
==== e(   3) =   -35.97836 eV ==== 
     psi = 0.496*[#   2]+0.496*[#   3]+0.496*[#   4]+0.004*[#  11]+0.004*[#  12]
          +0.004*[#  13]
    |psi|^2 = 1.502
==== e(   4) =   -35.84668 eV ==== 
     psi = 0.172*[#   2]+0.172*[#   3]+0.172*[#   4]+0.002*[#  11]+0.002*[#  12]
          +0.002*[#  13]
    |psi|^2 = 0.522
==== e(   5) =    13.51581 eV ==== 
     psi = 0.165*[#   6]+0.165*[#   7]+0.165*[#   9]+0.155*[#  10]+0.138*[#   5]
          +0.138*[#   8]+0.023*[#  11]+0.023*[#  12]+0.023*[#  13]
    |psi|^2 = 0.994
==== e(   6) =    14.76661 eV ==== 
     psi = 0.316*[#   6]+0.316*[#   7]+0.316*[#   9]+0.021*[#  11]+0.021*[#  12]
          +0.021*[#  13]+0.008*[#   5]+0.008*[#   8]
    |psi|^2 = 1.030
==== e(   7) =    16.34940 eV ==== 
     psi = 0.259*[#   5]+0.259*[#   8]+0.064*[#   6]+0.064*[#   7]+0.064*[#   9]
          +0.047*[#  11]+0.047*[#  12]+0.047*[#  13]+0.003*[#  10]+0.001*[#   2]
          +0.001*[#   3]+0.001*[#   4]
    |psi|^2 = 0.858
==== e(   8) =    17.06149 eV ==== 
     psi = 0.326*[#   5]+0.326*[#   8]+0.112*[#   6]+0.112*[#   7]+0.112*[#   9]
          +0.009*[#  10]+0.002*[#  11]+0.002*[#  12]+0.002*[#  13]
    |psi|^2 = 1.003
==== e(   9) =    17.66741 eV ==== 
     psi = 0.215*[#   5]+0.215*[#   8]+0.159*[#   6]+0.159*[#   7]+0.159*[#   9]
          +0.029*[#  11]+0.029*[#  12]+0.029*[#  13]+0.002*[#  10]
    |psi|^2 = 0.999
==== e(  10) =    20.43377 eV ==== 
     psi = 0.115*[#   6]+0.115*[#   7]+0.115*[#   9]+0.086*[#  11]+0.086*[#  12]
          +0.086*[#  13]+0.031*[#   5]+0.031*[#   8]+0.016*[#  10]+0.002*[#   2]
          +0.002*[#   3]+0.002*[#   4]
    |psi|^2 = 0.687
==== e(  11) =    25.76627 eV ==== 
     psi = 0.612*[#  10]+0.158*[#  11]+0.158*[#  12]+0.158*[#  13]+0.056*[#   6]
          +0.056*[#   7]+0.056*[#   9]+0.018*[#   5]+0.018*[#   8]+0.002*[#   1]
          +0.002*[#   2]+0.002*[#   3]+0.002*[#   4]
    |psi|^2 = 1.298
==== e(  12) =    33.22933 eV ==== 
     psi = 0.172*[#  11]+0.172*[#  12]+0.172*[#  13]+0.155*[#  10]+0.008*[#   6]
          +0.008*[#   7]+0.008*[#   9]+0.007*[#   1]+0.003*[#   5]+0.003*[#   8]
          
    |psi|^2 = 0.709
==== e(  13) =    37.20957 eV ==== 
     psi = 0.289*[#  11]+0.289*[#  12]+0.289*[#  13]+0.022*[#  10]+0.003*[#   2]
          +0.003*[#   3]+0.003*[#   4]
    |psi|^2 = 0.898
==== e(  14) =    43.01313 eV ==== 
     psi = 0.173*[#  11]+0.173*[#  12]+0.173*[#  13]+0.004*[#  10]+0.002*[#   6]
          +0.002*[#   7]+0.002*[#   9]
    |psi|^2 = 0.533
==== e(  15) =    48.53959 eV ==== 
     psi = 0.005*[#  11]+0.005*[#  12]+0.005*[#  13]+0.003*[#  10]
    |psi|^2 = 0.019
==== e(  16) =    49.69338 eV ==== 
     psi = 0.001*[#  11]+0.001*[#  12]+0.001*[#  13]
    |psi|^2 = 0.005
==== e(  17) =    56.56325 eV ==== 
     psi = 0.038*[#  11]+0.038*[#  12]+0.038*[#  13]+0.008*[#  10]
    |psi|^2 = 0.124
==== e(  18) =    59.31000 eV ==== 
     psi = 0.003*[#  11]+0.003*[#  12]+0.003*[#  13]+0.001*[#  10]
    |psi|^2 = 0.012
==== e(  19) =    63.95378 eV ==== 
     psi = 0.003*[#  11]+0.003*[#  12]+0.003*[#  13]+0.001*[#  10]
    |psi|^2 = 0.011
==== e(  20) =    65.36356 eV ==== 

    |psi|^2 = 0.003

 k =  -0.2000000000 -0.2000000000  0.4000000000
==== e(   1) =   -69.96816 eV ==== 
     psi = 0.935*[#   1]+0.020*[#  11]+0.020*[#  12]+0.020*[#  13]+0.003*[#  10]
          
    |psi|^2 = 1.000
==== e(   2) =   -36.11532 eV ==== 
     psi = 0.154*[#   2]+0.154*[#   3]+0.154*[#   4]+0.004*[#  10]+0.004*[#  11]
          +0.004*[#  12]+0.004*[#  13]
    |psi|^2 = 0.479
==== e(   3) =   -35.93360 eV ==== 
     psi = 0.506*[#   2]+0.506*[#   3]+0.506*[#   4]+0.003*[#  11]+0.003*[#  12]
          +0.003*[#  13]
    |psi|^2 = 1.530
==== e(   4) =   -35.85434 eV ==== 
     psi = 0.252*[#   2]+0.252*[#   3]+0.252*[#   4]+0.003*[#  11]+0.003*[#  12]
          +0.003*[#  13]
    |psi|^2 = 0.767
==== e(   5) =    13.34626 eV ==== 
     psi = 0.264*[#  10]+0.133*[#  11]+0.133*[#  12]+0.133*[#  13]+0.078*[#   6]
          +0.078*[#   7]+0.078*[#   9]+0.036*[#   5]+0.036*[#   8]+0.020*[#   1]
          +0.003*[#   2]+0.003*[#   3]+0.003*[#   4]
    |psi|^2 = 0.997
==== e(   6) =    14.97045 eV ==== 
     psi = 0.205*[#   6]+0.205*[#   7]+0.205*[#   9]+0.155*[#   5]+0.155*[#   8]
          +0.048*[#  11]+0.048*[#  12]+0.048*[#  13]
    |psi|^2 = 1.069
==== e(   7) =    15.27987 eV ==== 
     psi = 0.289*[#   6]+0.289*[#   7]+0.289*[#   9]+0.008*[#  10]+0.005*[#  11]
          +0.005*[#  12]+0.005*[#  13]+0.005*[#   1]
    |psi|^2 = 0.897
==== e(   8) =    16.82462 eV ==== 
     psi = 0.333*[#   5]+0.333*[#   8]+0.109*[#   6]+0.109*[#   7]+0.109*[#   9]
          +0.012*[#  11]+0.012*[#  12]+0.012*[#  13]
    |psi|^2 = 1.031
==== e(   9) =    17.32334 eV ==== 
     psi = 0.423*[#   5]+0.423*[#   8]+0.046*[#   6]+0.046*[#   7]+0.046*[#   9]
          +0.009*[#  10]+0.002*[#  11]+0.002*[#  12]+0.002*[#  13]
    |psi|^2 = 0.999
==== e(  10) =    18.50850 eV ==== 
     psi = 0.240*[#   6]+0.240*[#   7]+0.240*[#   9]+0.040*[#   5]+0.040*[#   8]
          +0.031*[#  10]+0.021*[#  11]+0.021*[#  12]+0.021*[#  13]+0.006*[#   1]
          
    |psi|^2 = 0.903
==== e(  11) =    31.85466 eV ==== 
     psi = 0.306*[#  11]+0.306*[#  12]+0.306*[#  13]+0.017*[#   6]+0.017*[#   7]
          +0.017*[#   9]+0.011*[#   5]+0.011*[#   8]+0.002*[#   2]+0.002*[#   3]
          +0.002*[#   4]
    |psi|^2 = 0.998
==== e(  12) =    32.67634 eV ==== 
     psi = 0.594*[#  10]+0.031*[#   1]+0.018*[#  11]+0.018*[#  12]+0.018*[#  13]
          +0.010*[#   6]+0.010*[#   7]+0.010*[#   9]
    |psi|^2 = 0.709
==== e(  13) =    38.70329 eV ==== 
     psi = 0.260*[#  11]+0.260*[#  12]+0.260*[#  13]+0.049*[#  10]+0.003*[#   2]
          +0.003*[#   3]+0.003*[#   4]+0.002*[#   6]+0.002*[#   7]+0.002*[#   9]
          +0.001*[#   1]
    |psi|^2 = 0.847
==== e(  14) =    43.52527 eV ==== 
     psi = 0.115*[#  11]+0.115*[#  12]+0.115*[#  13]+0.001*[#   6]+0.001*[#   7]
          +0.001*[#   9]
    |psi|^2 = 0.354
==== e(  15) =    47.19525 eV ==== 
     psi = 0.012*[#  10]+0.011*[#  11]+0.011*[#  12]+0.011*[#  13]
    |psi|^2 = 0.047
==== e(  16) =    51.46020 eV ==== 
     psi = 0.022*[#  11]+0.022*[#  12]+0.022*[#  13]
    |psi|^2 = 0.067
==== e(  17) =    53.87547 eV ==== 
     psi = 0.010*[#  10]+0.004*[#  11]+0.004*[#  12]+0.004*[#  13]
    |psi|^2 = 0.025
==== e(  18) =    57.43017 eV ==== 
     psi = 0.005*[#  11]+0.005*[#  12]+0.005*[#  13]
    |psi|^2 = 0.015
==== e(  19) =    58.36532 eV ==== 
     psi = 0.014*[#  11]+0.014*[#  12]+0.014*[#  13]+0.005*[#  10]
    |psi|^2 = 0.047
==== e(  20) =    63.64421 eV ==== 
     psi = 0.005*[#  10]+0.003*[#  11]+0.003*[#  12]+0.003*[#  13]
    |psi|^2 = 0.013

 k =  -0.2000000000 -0.2666666667  0.4666666667
==== e(   1) =   -69.95689 eV ==== 
     psi = 0.961*[#   1]+0.012*[#  11]+0.012*[#  12]+0.012*[#  13]+0.004*[#  10]
          
    |psi|^2 = 1.000
==== e(   2) =   -36.15113 eV ==== 
     psi = 0.150*[#   2]+0.150*[#   3]+0.150*[#   4]+0.003*[#  11]+0.003*[#  12]
          +0.003*[#  13]+0.002*[#  10]
    |psi|^2 = 0.462
==== e(   3) =   -35.97076 eV ==== 
     psi = 0.511*[#   2]+0.511*[#   3]+0.511*[#   4]+0.003*[#  11]+0.003*[#  12]
          +0.003*[#  13]
    |psi|^2 = 1.542
==== e(   4) =   -35.85969 eV ==== 
     psi = 0.222*[#   2]+0.222*[#   3]+0.222*[#   4]+0.003*[#  11]+0.003*[#  12]
          +0.003*[#  13]
    |psi|^2 = 0.676
==== e(   5) =    13.81500 eV ==== 
     psi = 0.174*[#  10]+0.150*[#   6]+0.150*[#   7]+0.150*[#   9]+0.074*[#  11]
          +0.074*[#  12]+0.074*[#  13]+0.069*[#   5]+0.069*[#   8]+0.006*[#   1]
          +0.002*[#   2]+0.002*[#   3]+0.002*[#   4]
    |psi|^2 = 0.995
==== e(   6) =    14.83241 eV ==== 
     psi = 0.218*[#   6]+0.218*[#   7]+0.218*[#   9]+0.128*[#   5]+0.128*[#   8]
          +0.050*[#  11]+0.050*[#  12]+0.050*[#  13]+0.001*[#  10]
    |psi|^2 = 1.062
==== e(   7) =    15.43900 eV ==== 
     psi = 0.205*[#   6]+0.205*[#   7]+0.205*[#   9]+0.063*[#   5]+0.063*[#   8]
          +0.021*[#  11]+0.021*[#  12]+0.021*[#  13]+0.016*[#  10]+0.005*[#   1]
          
    |psi|^2 = 0.826
==== e(   8) =    16.93900 eV ==== 
     psi = 0.306*[#   5]+0.306*[#   8]+0.127*[#   6]+0.127*[#   7]+0.127*[#   9]
          +0.011*[#  11]+0.011*[#  12]+0.011*[#  13]
    |psi|^2 = 1.026
==== e(   9) =    17.40659 eV ==== 
     psi = 0.374*[#   5]+0.374*[#   8]+0.074*[#   6]+0.074*[#   7]+0.074*[#   9]
          +0.012*[#  10]+0.005*[#  11]+0.005*[#  12]+0.005*[#  13]
    |psi|^2 = 0.999
==== e(  10) =    19.64601 eV ==== 
     psi = 0.183*[#   6]+0.183*[#   7]+0.183*[#   9]+0.061*[#  10]+0.042*[#   5]
          +0.042*[#   8]+0.036*[#  11]+0.036*[#  12]+0.036*[#  13]+0.006*[#   1]
          
    |psi|^2 = 0.808
==== e(  11) =    29.31081 eV ==== 
     psi = 0.281*[#  10]+0.240*[#  11]+0.240*[#  12]+0.240*[#  13]+0.026*[#   6]
          +0.026*[#   7]+0.026*[#   9]+0.012*[#   5]+0.012*[#   8]+0.007*[#   1]
          +0.001*[#   2]+0.001*[#   3]+0.001*[#   4]
    |psi|^2 = 1.113
==== e(  12) =    31.47619 eV ==== 
     psi = 0.391*[#  10]+0.123*[#  11]+0.123*[#  12]+0.123*[#  13]+0.014*[#   1]
          +0.013*[#   6]+0.013*[#   7]+0.013*[#   9]+0.004*[#   5]+0.004*[#   8]
          
    |psi|^2 = 0.823
==== e(  13) =    37.81817 eV ==== 
     psi = 0.275*[#  11]+0.275*[#  12]+0.275*[#  13]+0.029*[#  10]+0.003*[#   2]
          +0.003*[#   3]+0.003*[#   4]+0.002*[#   6]+0.002*[#   7]+0.002*[#   9]
          
    |psi|^2 = 0.871
==== e(  14) =    43.76320 eV ==== 
     psi = 0.127*[#  11]+0.127*[#  12]+0.127*[#  13]+0.001*[#   6]+0.001*[#   7]
          +0.001*[#   9]
    |psi|^2 = 0.390
==== e(  15) =    47.55962 eV ==== 
     psi = 0.007*[#  11]+0.007*[#  12]+0.007*[#  13]+0.005*[#  10]
    |psi|^2 = 0.029
==== e(  16) =    52.11338 eV ==== 
     psi = 0.009*[#  11]+0.009*[#  12]+0.009*[#  13]+0.003*[#  10]
    |psi|^2 = 0.030
==== e(  17) =    55.51376 eV ==== 
     psi = 0.003*[#  11]+0.003*[#  12]+0.003*[#  13]
    |psi|^2 = 0.011
==== e(  18) =    57.94809 eV ==== 
     psi = 0.016*[#  11]+0.016*[#  12]+0.016*[#  13]+0.013*[#  10]
    |psi|^2 = 0.062
==== e(  19) =    59.80450 eV ==== 
     psi = 0.017*[#  11]+0.017*[#  12]+0.017*[#  13]
    |psi|^2 = 0.053
==== e(  20) =    64.26781 eV ==== 
     psi = 0.003*[#  11]+0.003*[#  12]+0.003*[#  13]+0.002*[#  10]
    |psi|^2 = 0.012

 k =  -0.2000000000  0.6666666667 -0.4666666667
==== e(   1) =   -69.94923 eV ==== 
     psi = 0.982*[#   1]+0.004*[#  10]+0.004*[#  11]+0.004*[#  12]+0.004*[#  13]
          
    |psi|^2 = 1.000
==== e(   2) =   -36.17187 eV ==== 
     psi = 0.151*[#   2]+0.151*[#   3]+0.151*[#   4]+0.003*[#  11]+0.003*[#  12]
          +0.003*[#  13]
    |psi|^2 = 0.462
==== e(   3) =   -36.00063 eV ==== 
     psi = 0.506*[#   2]+0.506*[#   3]+0.506*[#   4]+0.003*[#  11]+0.003*[#  12]
          +0.003*[#  13]
    |psi|^2 = 1.527
==== e(   4) =   -35.86211 eV ==== 
     psi = 0.195*[#   2]+0.195*[#   3]+0.195*[#   4]+0.002*[#  11]+0.002*[#  12]
          +0.002*[#  13]
    |psi|^2 = 0.594
==== e(   5) =    13.89275 eV ==== 
     psi = 0.180*[#   6]+0.180*[#   7]+0.180*[#   9]+0.122*[#  10]+0.109*[#   5]
          +0.109*[#   8]+0.037*[#  11]+0.037*[#  12]+0.037*[#  13]+0.001*[#   1]
          
    |psi|^2 = 0.994
==== e(   6) =    14.79633 eV ==== 
     psi = 0.268*[#   6]+0.268*[#   7]+0.268*[#   9]+0.060*[#   5]+0.060*[#   8]
          +0.044*[#  11]+0.044*[#  12]+0.044*[#  13]+0.002*[#  10]
    |psi|^2 = 1.060
==== e(   7) =    15.69440 eV ==== 
     psi = 0.174*[#   5]+0.174*[#   8]+0.117*[#   6]+0.117*[#   7]+0.117*[#   9]
          +0.039*[#  11]+0.039*[#  12]+0.039*[#  13]+0.008*[#  10]+0.002*[#   1]
          
    |psi|^2 = 0.828
==== e(   8) =    17.05021 eV ==== 
     psi = 0.306*[#   5]+0.306*[#   8]+0.126*[#   6]+0.126*[#   7]+0.126*[#   9]
          +0.008*[#  11]+0.008*[#  12]+0.008*[#  13]+0.004*[#  10]
    |psi|^2 = 1.018
==== e(   9) =    17.51343 eV ==== 
     psi = 0.289*[#   5]+0.289*[#   8]+0.127*[#   6]+0.127*[#   7]+0.127*[#   9]
          +0.011*[#  11]+0.011*[#  12]+0.011*[#  13]+0.007*[#  10]
    |psi|^2 = 0.999
==== e(  10) =    21.01525 eV ==== 
     psi = 0.121*[#   6]+0.121*[#   7]+0.121*[#   9]+0.062*[#  11]+0.062*[#  12]
          +0.062*[#  13]+0.061*[#  10]+0.038*[#   5]+0.038*[#   8]+0.002*[#   1]
          
    |psi|^2 = 0.691
==== e(  11) =    26.84741 eV ==== 
     psi = 0.423*[#  10]+0.230*[#  11]+0.230*[#  12]+0.230*[#  13]+0.042*[#   6]
          +0.042*[#   7]+0.042*[#   9]+0.016*[#   5]+0.016*[#   8]+0.003*[#   1]
          +0.001*[#   2]+0.001*[#   3]+0.001*[#   4]
    |psi|^2 = 1.280
==== e(  12) =    30.88779 eV ==== 
     psi = 0.327*[#  10]+0.150*[#  11]+0.150*[#  12]+0.150*[#  13]+0.014*[#   6]
          +0.014*[#   7]+0.014*[#   9]+0.010*[#   1]+0.005*[#   5]+0.005*[#   8]
          
    |psi|^2 = 0.840
==== e(  13) =    37.26062 eV ==== 
     psi = 0.283*[#  11]+0.283*[#  12]+0.283*[#  13]+0.019*[#  10]+0.003*[#   2]
          +0.003*[#   3]+0.003*[#   4]+0.002*[#   6]+0.002*[#   7]+0.002*[#   9]
          
    |psi|^2 = 0.885
==== e(  14) =    43.88596 eV ==== 
     psi = 0.131*[#  11]+0.131*[#  12]+0.131*[#  13]+0.002*[#  10]+0.001*[#   6]
          +0.001*[#   7]+0.001*[#   9]
    |psi|^2 = 0.401
==== e(  15) =    48.07262 eV ==== 
     psi = 0.003*[#  11]+0.003*[#  12]+0.003*[#  13]+0.001*[#  10]
    |psi|^2 = 0.013
==== e(  16) =    51.86140 eV ==== 
     psi = 0.004*[#  11]+0.004*[#  12]+0.004*[#  13]+0.002*[#  10]
    |psi|^2 = 0.015
==== e(  17) =    56.03369 eV ==== 
     psi = 0.028*[#  11]+0.028*[#  12]+0.028*[#  13]+0.008*[#  10]
    |psi|^2 = 0.094
==== e(  18) =    59.74135 eV ==== 
     psi = 0.009*[#  11]+0.009*[#  12]+0.009*[#  13]+0.006*[#  10]
    |psi|^2 = 0.033
==== e(  19) =    61.51578 eV ==== 
     psi = 0.004*[#  11]+0.004*[#  12]+0.004*[#  13]
    |psi|^2 = 0.013
[...]
          +0.006*[#  10]+0.004*[#   6]+0.004*[#   7]+0.004*[#   9]
    |psi|^2 = 0.966
==== e(   6) =    15.55609 eV ==== 
     psi = 0.424*[#   5]+0.424*[#   8]+0.028*[#  11]+0.028*[#  12]+0.028*[#  13]
          +0.003*[#   6]+0.003*[#   7]+0.003*[#   9]
    |psi|^2 = 0.939
==== e(   7) =    19.10463 eV ==== 
     psi = 0.313*[#   6]+0.313*[#   7]+0.313*[#   9]+0.023*[#  11]+0.023*[#  12]
          +0.023*[#  13]
    |psi|^2 = 1.010
==== e(   8) =    19.37726 eV ==== 
     psi = 0.291*[#   6]+0.291*[#   7]+0.291*[#   9]+0.023*[#   5]+0.023*[#   8]
          +0.020*[#  10]+0.013*[#  11]+0.013*[#  12]+0.013*[#  13]
    |psi|^2 = 0.975
==== e(   9) =    20.51574 eV ==== 
     psi = 0.332*[#   6]+0.332*[#   7]+0.332*[#   9]
    |psi|^2 = 0.998
==== e(  10) =    25.34155 eV ==== 
     psi = 0.091*[#   5]+0.091*[#   8]+0.076*[#  10]+0.029*[#  11]+0.029*[#  12]
          +0.029*[#  13]+0.006*[#   6]+0.006*[#   7]+0.006*[#   9]
    |psi|^2 = 0.365
==== e(  11) =    27.95135 eV ==== 
     psi = 0.432*[#  11]+0.432*[#  12]+0.432*[#  13]+0.164*[#  10]+0.028*[#   6]
          +0.028*[#   7]+0.028*[#   9]+0.025*[#   5]+0.025*[#   8]
    |psi|^2 = 1.597
==== e(  12) =    30.36698 eV ==== 
     psi = 0.309*[#  11]+0.309*[#  12]+0.309*[#  13]+0.019*[#   6]+0.019*[#   7]
          +0.019*[#   9]
    |psi|^2 = 0.984
==== e(  13) =    35.44819 eV ==== 
     psi = 0.129*[#  10]+0.028*[#   5]+0.028*[#   8]+0.010*[#  11]+0.010*[#  12]
          +0.010*[#  13]+0.006*[#   1]
    |psi|^2 = 0.221
==== e(  14) =    37.80930 eV ==== 
     psi = 0.056*[#  10]+0.015*[#   5]+0.015*[#   8]+0.007*[#  11]+0.007*[#  12]
          +0.007*[#  13]+0.003*[#   1]
    |psi|^2 = 0.110
==== e(  15) =    43.30723 eV ==== 
     psi = 0.500*[#  10]+0.030*[#  11]+0.030*[#  12]+0.030*[#  13]+0.025*[#   1]
          
    |psi|^2 = 0.618
==== e(  16) =    53.16112 eV ==== 
     psi = 0.001*[#  11]+0.001*[#  12]+0.001*[#  13]+0.001*[#   6]+0.001*[#   7]
          +0.001*[#   9]
    |psi|^2 = 0.007
==== e(  17) =    57.56687 eV ==== 
     psi = 0.010*[#  10]+0.002*[#  11]+0.002*[#  12]+0.002*[#  13]
    |psi|^2 = 0.016
==== e(  18) =    61.96237 eV ==== 
     psi = 0.004*[#  11]+0.004*[#  12]+0.004*[#  13]
    |psi|^2 = 0.011
==== e(  19) =    66.80687 eV ==== 
     psi = 0.004*[#  10]
    |psi|^2 = 0.007
==== e(  20) =    67.47945 eV ==== 
     psi = 0.004*[#  11]+0.004*[#  12]+0.004*[#  13]
    |psi|^2 = 0.013

 k =  -0.0666666667 -0.0666666667  0.8000000000
==== e(   1) =   -67.14616 eV ==== 
     psi = 0.964*[#   1]+0.024*[#  10]+0.004*[#  11]+0.004*[#  12]+0.004*[#  13]
          
    |psi|^2 = 1.000
==== e(   2) =   -33.46540 eV ==== 
     psi = 0.103*[#   2]+0.103*[#   3]+0.103*[#   4]
    |psi|^2 = 0.310
==== e(   3) =   -33.42424 eV ==== 
     psi = 0.562*[#   2]+0.562*[#   3]+0.562*[#   4]+0.001*[#  11]+0.001*[#  12]
          +0.001*[#  13]
    |psi|^2 = 1.691
==== e(   4) =   -33.38305 eV ==== 
     psi = 0.282*[#   2]+0.282*[#   3]+0.282*[#   4]+0.001*[#  10]
    |psi|^2 = 0.847
==== e(   5) =    15.36063 eV ==== 
     psi = 0.388*[#   5]+0.388*[#   8]+0.061*[#  11]+0.061*[#  12]+0.061*[#  13]
          +0.005*[#  10]+0.001*[#   6]+0.001*[#   7]+0.001*[#   9]
    |psi|^2 = 0.970
==== e(   6) =    15.50977 eV ==== 
     psi = 0.449*[#   5]+0.449*[#   8]+0.013*[#  11]+0.013*[#  12]+0.013*[#  13]
          +0.002*[#   6]+0.002*[#   7]+0.002*[#   9]
    |psi|^2 = 0.945
==== e(   7) =    19.19524 eV ==== 
     psi = 0.308*[#   6]+0.308*[#   7]+0.308*[#   9]+0.017*[#  11]+0.017*[#  12]
          +0.017*[#  13]+0.009*[#  10]+0.002*[#   5]+0.002*[#   8]
    |psi|^2 = 0.988
==== e(   8) =    19.73522 eV ==== 
     psi = 0.311*[#   6]+0.311*[#   7]+0.311*[#   9]+0.022*[#  11]+0.022*[#  12]
          +0.022*[#  13]+0.007*[#   5]+0.007*[#   8]
    |psi|^2 = 1.014
==== e(   9) =    20.35763 eV ==== 
     psi = 0.328*[#   6]+0.328*[#   7]+0.328*[#   9]+0.003*[#   5]+0.003*[#   8]
          +0.002*[#  11]+0.002*[#  12]+0.002*[#  13]+0.002*[#  10]
    |psi|^2 = 0.997
==== e(  10) =    25.17765 eV ==== 
     psi = 0.115*[#  10]+0.086*[#   5]+0.086*[#   8]+0.007*[#  11]+0.007*[#  12]
          +0.007*[#  13]+0.007*[#   6]+0.007*[#   7]+0.007*[#   9]
    |psi|^2 = 0.331
==== e(  11) =    29.20964 eV ==== 
     psi = 0.517*[#  11]+0.517*[#  12]+0.517*[#  13]+0.019*[#   6]+0.019*[#   7]
          +0.019*[#   9]+0.018*[#   5]+0.018*[#   8]
    |psi|^2 = 1.647
==== e(  12) =    29.41936 eV ==== 
     psi = 0.273*[#  11]+0.273*[#  12]+0.273*[#  13]+0.107*[#  10]+0.021*[#   6]
          +0.021*[#   7]+0.021*[#   9]+0.002*[#   5]+0.002*[#   8]
    |psi|^2 = 0.993
==== e(  13) =    35.62628 eV ==== 
     psi = 0.026*[#   5]+0.026*[#   8]+0.003*[#  11]+0.003*[#  12]+0.003*[#  13]
          
    |psi|^2 = 0.064
==== e(  14) =    36.92353 eV ==== 
     psi = 0.193*[#  10]+0.018*[#   5]+0.018*[#   8]+0.014*[#  11]+0.014*[#  12]
          +0.014*[#  13]+0.009*[#   1]
    |psi|^2 = 0.281
==== e(  15) =    42.94674 eV ==== 
     psi = 0.520*[#  10]+0.029*[#  11]+0.029*[#  12]+0.029*[#  13]+0.025*[#   1]
          
    |psi|^2 = 0.633
==== e(  16) =    53.69183 eV ==== 
     psi = 0.007*[#  11]+0.007*[#  12]+0.007*[#  13]
    |psi|^2 = 0.025
==== e(  17) =    59.50335 eV ==== 
     psi = 0.007*[#  10]+0.002*[#  11]+0.002*[#  12]+0.002*[#  13]
    |psi|^2 = 0.014
==== e(  18) =    60.30871 eV ==== 
     psi = 0.004*[#  11]+0.004*[#  12]+0.004*[#  13]
    |psi|^2 = 0.014
==== e(  19) =    65.58092 eV ==== 
     psi = 0.006*[#  10]+0.001*[#  11]+0.001*[#  12]+0.001*[#  13]
    |psi|^2 = 0.010
==== e(  20) =    68.31696 eV ==== 
     psi = 0.002*[#  11]+0.002*[#  12]+0.002*[#  13]+0.001*[#  10]
    |psi|^2 = 0.007

 k =  -0.0666666667  0.8666666667 -0.1333333333
==== e(   1) =   -67.14337 eV ==== 
     psi = 0.966*[#   1]+0.025*[#  10]+0.003*[#  11]+0.003*[#  12]+0.003*[#  13]
          
    |psi|^2 = 1.000
==== e(   2) =   -33.46940 eV ==== 
     psi = 0.166*[#   2]+0.166*[#   3]+0.166*[#   4]
    |psi|^2 = 0.501
==== e(   3) =   -33.43807 eV ==== 
     psi = 0.456*[#   2]+0.456*[#   3]+0.456*[#   4]
    |psi|^2 = 1.370
==== e(   4) =   -33.38203 eV ==== 
     psi = 0.210*[#   2]+0.210*[#   3]+0.210*[#   4]+0.001*[#  10]
    |psi|^2 = 0.631
==== e(   5) =    15.38022 eV ==== 
     psi = 0.417*[#   5]+0.417*[#   8]+0.040*[#  11]+0.040*[#  12]+0.040*[#  13]
          
    |psi|^2 = 0.959
==== e(   6) =    15.38513 eV ==== 
     psi = 0.435*[#   5]+0.435*[#   8]+0.015*[#  11]+0.015*[#  12]+0.015*[#  13]
          +0.003*[#   6]+0.003*[#   7]+0.003*[#   9]
    |psi|^2 = 0.925
==== e(   7) =    19.20048 eV ==== 
     psi = 0.308*[#   6]+0.308*[#   7]+0.308*[#   9]+0.022*[#  11]+0.022*[#  12]
          +0.022*[#  13]+0.012*[#  10]
    |psi|^2 = 1.004
==== e(   8) =    19.95841 eV ==== 
     psi = 0.313*[#   6]+0.313*[#   7]+0.313*[#   9]+0.016*[#  11]+0.016*[#  12]
          +0.016*[#  13]+0.009*[#   5]+0.009*[#   8]+0.002*[#  10]
    |psi|^2 = 1.007
==== e(   9) =    20.43688 eV ==== 
     psi = 0.327*[#   6]+0.327*[#   7]+0.327*[#   9]+0.003*[#   5]+0.003*[#   8]
          +0.003*[#  11]+0.003*[#  12]+0.003*[#  13]
    |psi|^2 = 0.998
==== e(  10) =    26.74404 eV ==== 
     psi = 0.143*[#  11]+0.143*[#  12]+0.143*[#  13]+0.061*[#   5]+0.061*[#   8]
          +0.005*[#   6]+0.005*[#   7]+0.005*[#   9]
    |psi|^2 = 0.565
==== e(  11) =    27.57176 eV ==== 
     psi = 0.270*[#  11]+0.270*[#  12]+0.270*[#  13]+0.152*[#  10]+0.024*[#   5]
          +0.024*[#   8]+0.023*[#   6]+0.023*[#   7]+0.023*[#   9]
    |psi|^2 = 1.082
==== e(  12) =    29.01923 eV ==== 
     psi = 0.278*[#  11]+0.278*[#  12]+0.278*[#  13]+0.078*[#  10]+0.018*[#   6]
          +0.018*[#   7]+0.018*[#   9]+0.007*[#   5]+0.007*[#   8]
    |psi|^2 = 0.979
==== e(  13) =    35.90304 eV ==== 
     psi = 0.042*[#  10]+0.024*[#   5]+0.024*[#   8]+0.006*[#  11]+0.006*[#  12]
          +0.006*[#  13]+0.002*[#   1]
    |psi|^2 = 0.110
==== e(  14) =    36.98347 eV ==== 
     psi = 0.018*[#   5]+0.018*[#   8]+0.005*[#  11]+0.005*[#  12]+0.005*[#  13]
          
    |psi|^2 = 0.052
==== e(  15) =    42.07369 eV ==== 
     psi = 0.666*[#  10]+0.044*[#  11]+0.044*[#  12]+0.044*[#  13]+0.032*[#   1]
          
    |psi|^2 = 0.832
==== e(  16) =    53.68464 eV ==== 
     psi = 0.001*[#  10]
    |psi|^2 = 0.006
==== e(  17) =    59.82322 eV ==== 
     psi = 0.007*[#  10]+0.002*[#  11]+0.002*[#  12]+0.002*[#  13]
    |psi|^2 = 0.012
==== e(  18) =    62.53289 eV ==== 
     psi = 0.003*[#  11]+0.003*[#  12]+0.003*[#  13]
    |psi|^2 = 0.009
==== e(  19) =    64.85442 eV ==== 

    |psi|^2 = 0.002
==== e(  20) =    69.08320 eV ==== 
     psi = 0.003*[#  11]+0.003*[#  12]+0.003*[#  13]
    |psi|^2 = 0.010

 k =   0.0000000000  0.0000000000  0.8000000000
==== e(   1) =   -67.14408 eV ==== 
     psi = 0.963*[#   1]+0.025*[#  10]+0.004*[#  11]+0.004*[#  12]+0.004*[#  13]
          
    |psi|^2 = 1.000
==== e(   2) =   -33.44619 eV ==== 
     psi = 0.002*[#  10]
    |psi|^2 = 0.002
==== e(   3) =   -33.41914 eV ==== 
     psi = 0.665*[#   2]+0.665*[#   3]+0.665*[#   4]
    |psi|^2 = 1.998
==== e(   4) =   -33.41914 eV ==== 
     psi = 0.333*[#   2]+0.333*[#   3]+0.333*[#   4]
    |psi|^2 = 1.000
==== e(   5) =    15.26806 eV ==== 
     psi = 0.390*[#   5]+0.390*[#   8]+0.060*[#  11]+0.060*[#  12]+0.060*[#  13]
          +0.006*[#  10]+0.001*[#   1]
    |psi|^2 = 0.969
==== e(   6) =    15.45930 eV ==== 
     psi = 0.465*[#   5]+0.465*[#   8]
    |psi|^2 = 0.931
==== e(   7) =    19.70755 eV ==== 
     psi = 0.314*[#   6]+0.314*[#   7]+0.314*[#   9]+0.018*[#  11]+0.018*[#  12]
          +0.018*[#  13]
    |psi|^2 = 0.997
==== e(   8) =    19.70755 eV ==== 
     psi = 0.314*[#   6]+0.314*[#   7]+0.314*[#   9]+0.018*[#  11]+0.018*[#  12]
          +0.018*[#  13]
    |psi|^2 = 0.997
==== e(   9) =    20.21491 eV ==== 
     psi = 0.332*[#   6]+0.332*[#   7]+0.332*[#   9]
    |psi|^2 = 0.997
==== e(  10) =    24.90251 eV ==== 
     psi = 0.136*[#  10]+0.088*[#   5]+0.088*[#   8]
    |psi|^2 = 0.314
==== e(  11) =    29.79395 eV ==== 
     psi = 0.535*[#  11]+0.535*[#  12]+0.535*[#  13]+0.018*[#   6]+0.018*[#   7]
          +0.018*[#   9]
    |psi|^2 = 1.663
==== e(  12) =    29.79395 eV ==== 
     psi = 0.310*[#  11]+0.310*[#  12]+0.310*[#  13]+0.018*[#   6]+0.018*[#   7]
          +0.018*[#   9]
    |psi|^2 = 0.985
==== e(  13) =    34.88119 eV ==== 
     psi = 0.035*[#   5]+0.035*[#   8]
    |psi|^2 = 0.069
==== e(  14) =    36.31809 eV ==== 
     psi = 0.291*[#  10]+0.021*[#   5]+0.021*[#   8]+0.012*[#   1]
    |psi|^2 = 0.345
==== e(  15) =    42.67024 eV ==== 
     psi = 0.519*[#  10]+0.022*[#   1]+0.013*[#  11]+0.013*[#  12]+0.013*[#  13]
          
    |psi|^2 = 0.582
==== e(  16) =    54.71832 eV ==== 

    |psi|^2 = 0.002
==== e(  17) =    60.13846 eV ==== 
     psi = 0.004*[#  11]+0.004*[#  12]+0.004*[#  13]
    |psi|^2 = 0.013
==== e(  18) =    60.13846 eV ==== 
     psi = 0.006*[#  11]+0.006*[#  12]+0.006*[#  13]
    |psi|^2 = 0.019
==== e(  19) =    63.84877 eV ==== 
     psi = 0.013*[#  10]
    |psi|^2 = 0.013
==== e(  20) =    69.90802 eV ==== 
     psi = 0.002*[#  11]+0.002*[#  12]+0.002*[#  13]
    |psi|^2 = 0.007

 k =   0.0000000000 -0.0666666667  0.8666666667
==== e(   1) =   -67.13863 eV ==== 
     psi = 0.966*[#   1]+0.028*[#  10]+0.002*[#  11]+0.002*[#  12]+0.002*[#  13]
          
    |psi|^2 = 1.000
==== e(   2) =   -33.46125 eV ==== 
     psi = 0.126*[#   2]+0.126*[#   3]+0.126*[#   4]
    |psi|^2 = 0.378
==== e(   3) =   -33.43352 eV ==== 
     psi = 0.540*[#   2]+0.540*[#   3]+0.540*[#   4]
    |psi|^2 = 1.622
==== e(   4) =   -33.42207 eV ==== 
     psi = 0.207*[#   2]+0.207*[#   3]+0.207*[#   4]
    |psi|^2 = 0.623
==== e(   5) =    15.21123 eV ==== 
     psi = 0.428*[#   5]+0.428*[#   8]+0.031*[#  11]+0.031*[#  12]+0.031*[#  13]
          
    |psi|^2 = 0.953
==== e(   6) =    15.26350 eV ==== 
     psi = 0.457*[#   5]+0.457*[#   8]+0.006*[#  11]+0.006*[#  12]+0.006*[#  13]
          
    |psi|^2 = 0.935
==== e(   7) =    19.88865 eV ==== 
     psi = 0.321*[#   6]+0.321*[#   7]+0.321*[#   9]+0.012*[#  11]+0.012*[#  12]
          +0.012*[#  13]
    |psi|^2 = 0.997
==== e(   8) =    19.99251 eV ==== 
     psi = 0.317*[#   6]+0.317*[#   7]+0.317*[#   9]+0.010*[#  11]+0.010*[#  12]
          +0.010*[#  13]+0.003*[#  10]+0.002*[#   5]+0.002*[#   8]
    |psi|^2 = 0.988
==== e(   9) =    20.46807 eV ==== 
     psi = 0.332*[#   6]+0.332*[#   7]+0.332*[#   9]
    |psi|^2 = 0.998
==== e(  10) =    26.50122 eV ==== 
     psi = 0.072*[#  10]+0.046*[#   5]+0.046*[#   8]+0.008*[#  11]+0.008*[#  12]
          +0.008*[#  13]+0.002*[#   6]+0.002*[#   7]+0.002*[#   9]
    |psi|^2 = 0.196
==== e(  11) =    28.37196 eV ==== 
     psi = 0.556*[#  11]+0.556*[#  12]+0.556*[#  13]+0.049*[#  10]+0.013*[#   6]
          +0.013*[#   7]+0.013*[#   9]+0.010*[#   5]+0.010*[#   8]
    |psi|^2 = 1.778
==== e(  12) =    29.09218 eV ==== 
     psi = 0.317*[#  11]+0.317*[#  12]+0.317*[#  13]+0.012*[#   6]+0.012*[#   7]
          +0.012*[#   9]
    |psi|^2 = 0.987
==== e(  13) =    35.05312 eV ==== 
     psi = 0.032*[#   5]+0.032*[#   8]+0.021*[#  10]
    |psi|^2 = 0.087
==== e(  14) =    36.08816 eV ==== 
     psi = 0.066*[#  10]+0.023*[#   5]+0.023*[#   8]+0.003*[#   1]+0.002*[#  11]
          +0.002*[#  12]+0.002*[#  13]
    |psi|^2 = 0.122
==== e(  15) =    41.19809 eV ==== 
     psi = 0.741*[#  10]+0.030*[#   1]+0.011*[#  11]+0.011*[#  12]+0.011*[#  13]
          
    |psi|^2 = 0.804
==== e(  16) =    55.04330 eV ==== 

    |psi|^2 = 0.002
==== e(  17) =    61.12432 eV ==== 
     psi = 0.003*[#  10]+0.002*[#  11]+0.002*[#  12]+0.002*[#  13]
    |psi|^2 = 0.011
==== e(  18) =    62.49249 eV ==== 
     psi = 0.003*[#  11]+0.003*[#  12]+0.003*[#  13]
    |psi|^2 = 0.010
==== e(  19) =    66.02156 eV ==== 
     psi = 0.003*[#  10]
    |psi|^2 = 0.006
==== e(  20) =    67.39898 eV ==== 
     psi = 0.003*[#  11]+0.003*[#  12]+0.003*[#  13]
    |psi|^2 = 0.011

 k =  -0.0666666667  0.9333333333 -0.0666666667
==== e(   1) =   -67.13596 eV ==== 
     psi = 0.967*[#   1]+0.030*[#  10]+0.001*[#  11]+0.001*[#  12]+0.001*[#  13]
          
    |psi|^2 = 1.000
==== e(   2) =   -33.45363 eV ==== 
     psi = 0.122*[#   2]+0.122*[#   3]+0.122*[#   4]
    |psi|^2 = 0.367
==== e(   3) =   -33.45363 eV ==== 
     psi = 0.533*[#   2]+0.533*[#   3]+0.533*[#   4]
    |psi|^2 = 1.602
==== e(   4) =   -33.42514 eV ==== 
     psi = 0.284*[#   2]+0.284*[#   3]+0.284*[#   4]
    |psi|^2 = 0.853
==== e(   5) =    15.16519 eV ==== 
     psi = 0.451*[#   5]+0.451*[#   8]+0.012*[#  11]+0.012*[#  12]+0.012*[#  13]
          
    |psi|^2 = 0.939
==== e(   6) =    15.16519 eV ==== 
     psi = 0.451*[#   5]+0.451*[#   8]+0.010*[#  11]+0.010*[#  12]+0.010*[#  13]
          
    |psi|^2 = 0.933
==== e(   7) =    19.96721 eV ==== 
     psi = 0.321*[#   6]+0.321*[#   7]+0.321*[#   9]+0.015*[#  11]+0.015*[#  12]
          +0.015*[#  13]+0.002*[#  10]
    |psi|^2 = 1.010
==== e(   8) =    20.39749 eV ==== 
     psi = 0.329*[#   6]+0.329*[#   7]+0.329*[#   9]+0.005*[#  11]+0.005*[#  12]
          +0.005*[#  13]
    |psi|^2 = 1.003
==== e(   9) =    20.39749 eV ==== 
     psi = 0.329*[#   6]+0.329*[#   7]+0.329*[#   9]+0.003*[#  11]+0.003*[#  12]
          +0.003*[#  13]
    |psi|^2 = 0.998
==== e(  10) =    27.85669 eV ==== 
     psi = 0.313*[#  11]+0.313*[#  12]+0.313*[#  13]+0.019*[#   5]+0.019*[#   8]
          +0.004*[#   6]+0.004*[#   7]+0.004*[#   9]
    |psi|^2 = 0.991
==== e(  11) =    27.85669 eV ==== 
     psi = 0.105*[#  11]+0.105*[#  12]+0.105*[#  13]+0.019*[#   5]+0.019*[#   8]
          +0.004*[#   6]+0.004*[#   7]+0.004*[#   9]
    |psi|^2 = 0.364
==== e(  12) =    28.21912 eV ==== 
     psi = 0.349*[#  11]+0.349*[#  12]+0.349*[#  13]+0.096*[#  10]+0.012*[#   6]
          +0.012*[#   7]+0.012*[#   9]
    |psi|^2 = 1.180
==== e(  13) =    35.38398 eV ==== 
     psi = 0.029*[#   5]+0.029*[#   8]+0.001*[#  11]+0.001*[#  12]+0.001*[#  13]
          
    |psi|^2 = 0.061
==== e(  14) =    35.38398 eV ==== 
     psi = 0.029*[#   5]+0.029*[#   8]
    |psi|^2 = 0.060
==== e(  15) =    40.54998 eV ==== 
     psi = 0.855*[#  10]+0.033*[#   1]+0.022*[#  11]+0.022*[#  12]+0.022*[#  13]
          
    |psi|^2 = 0.954
==== e(  16) =    55.37037 eV ==== 

    |psi|^2 = 0.002
==== e(  17) =    62.31923 eV ==== 
     psi = 0.003*[#  10]+0.003*[#  11]+0.003*[#  12]+0.003*[#  13]
    |psi|^2 = 0.011
==== e(  18) =    64.46255 eV ==== 
     psi = 0.003*[#  11]+0.003*[#  12]+0.003*[#  13]
    |psi|^2 = 0.009
==== e(  19) =    64.46255 eV ==== 

    |psi|^2 = 0.003
==== e(  20) =    68.75585 eV ==== 
     psi = 0.002*[#  11]+0.002*[#  12]+0.002*[#  13]
    |psi|^2 = 0.007

 k =   0.0000000000  0.0000000000  0.9333333333
==== e(   1) =   -67.13335 eV ==== 
     psi = 0.968*[#   1]+0.031*[#  10]
    |psi|^2 = 1.000
==== e(   2) =   -33.45143 eV ==== 

    |psi|^2 = 0.000
==== e(   3) =   -33.44806 eV ==== 
     psi = 0.666*[#   2]+0.666*[#   3]+0.666*[#   4]
    |psi|^2 = 2.000
==== e(   4) =   -33.44806 eV ==== 
     psi = 0.333*[#   2]+0.333*[#   3]+0.333*[#   4]
    |psi|^2 = 1.000
==== e(   5) =    15.07963 eV ==== 
     psi = 0.455*[#   5]+0.455*[#   8]+0.008*[#  11]+0.008*[#  12]+0.008*[#  13]
          
    |psi|^2 = 0.935
==== e(   6) =    15.09364 eV ==== 
     psi = 0.464*[#   5]+0.464*[#   8]
    |psi|^2 = 0.928
==== e(   7) =    20.38338 eV ==== 
     psi = 0.329*[#   6]+0.329*[#   7]+0.329*[#   9]+0.003*[#  11]+0.003*[#  12]
          +0.003*[#  13]
    |psi|^2 = 0.998
==== e(   8) =    20.38338 eV ==== 
     psi = 0.329*[#   6]+0.329*[#   7]+0.329*[#   9]+0.003*[#  11]+0.003*[#  12]
          +0.003*[#  13]
    |psi|^2 = 0.998
==== e(   9) =    20.45902 eV ==== 
     psi = 0.333*[#   6]+0.333*[#   7]+0.333*[#   9]
    |psi|^2 = 0.998
==== e(  10) =    27.59599 eV ==== 
     psi = 0.030*[#  10]+0.013*[#   5]+0.013*[#   8]
    |psi|^2 = 0.057
==== e(  11) =    28.33958 eV ==== 
     psi = 0.637*[#  11]+0.637*[#  12]+0.637*[#  13]+0.003*[#   6]+0.003*[#   7]
          +0.003*[#   9]
    |psi|^2 = 1.922
==== e(  12) =    28.33958 eV ==== 
     psi = 0.326*[#  11]+0.326*[#  12]+0.326*[#  13]+0.003*[#   6]+0.003*[#   7]
          +0.003*[#   9]
    |psi|^2 = 0.989
==== e(  13) =    34.74174 eV ==== 
     psi = 0.036*[#   5]+0.036*[#   8]
    |psi|^2 = 0.072
==== e(  14) =    35.10948 eV ==== 
     psi = 0.031*[#   5]+0.031*[#   8]+0.012*[#  10]
    |psi|^2 = 0.075
==== e(  15) =    40.03827 eV ==== 
     psi = 0.911*[#  10]+0.032*[#   1]
    |psi|^2 = 0.944
==== e(  16) =    55.90037 eV ==== 

    |psi|^2 = 0.000
==== e(  17) =    64.31394 eV ==== 
     psi = 0.002*[#  11]+0.002*[#  12]+0.002*[#  13]
    |psi|^2 = 0.008
==== e(  18) =    64.31394 eV ==== 
     psi = 0.002*[#  11]+0.002*[#  12]+0.002*[#  13]
    |psi|^2 = 0.008
==== e(  19) =    65.88006 eV ==== 
     psi = 0.002*[#  10]
    |psi|^2 = 0.002
==== e(  20) =    67.11577 eV ==== 
     psi = 0.002*[#  11]+0.002*[#  12]+0.002*[#  13]
    |psi|^2 = 0.009

Lowdin Charges: 

     Atom #   1: total charge =  15.1595, s =  2.3918, p =  6.4100, d =  6.3576, 
                 spin up      =   8.6885, s =  1.1860, 
                 spin up      =   8.6885, p =  3.1424, pz=  1.0475, px=  1.0475, py=  1.0475, 
                 spin up      =   8.6885, d =  4.3601, dz2=  0.9183, dxz=  0.8411, dyz=  0.8411, dx2-y2=  0.9183, dxy=  0.8411, 
                 spin down    =   6.4710, s =  1.2058, 
                 spin down    =   6.4710, p =  3.2676, pz=  1.0892, px=  1.0892, py=  1.0892, 
                 spin down    =   6.4710, d =  1.9976, dz2=  0.2830, dxz=  0.4772, dyz=  0.4772, dx2-y2=  0.2830, dxy=  0.4772, 
                 polarization =   2.2175, s = -0.0197, p = -0.1253, d =  2.3625, 
     Spilling Parameter:   0.0525

     PROJWFC      :      2.34s CPU      2.73s WALL


   This run was terminated on:  14:58: 9   4Feb2022            

=------------------------------------------------------------------------------=
   JOB DONE.
=------------------------------------------------------------------------------=
