
     Program PHONON v.7.0 starts on 10Feb2022 at  0:22:58 

     This program is part of the open-source Quantum ESPRESSO suite
     for quantum simulation of materials; please cite
         "P. Giannozzi et al., J. Phys.:Condens. Matter 21 395502 (2009);
         "P. Giannozzi et al., J. Phys.:Condens. Matter 29 465901 (2017);
         "P. Giannozzi et al., J. Chem. Phys. 152 154105 (2020);
          URL http://www.quantum-espresso.org", 
     in publications or presentations arising from this work. More details at
     http://www.quantum-espresso.org/quote

     Parallel version (MPI), running on     2 processors

     MPI processes distributed on     1 nodes
     path-images division:  nimage    =       2
     326 MiB available memory on the printing compute node when the environment starts

     Reading input from 02-nacl-ph.in
      Title line not specified: using 'default'.

     Reading xml data from directory:

     ./nacl.save/

     IMPORTANT: XC functional enforced from input :
     Exchange-correlation= PBE
                           (   1   4   3   4   0   0   0)
     Any further DFT definition will be discarded
     Please, verify this is what you really want


     G-vector sticks info
     --------------------
     sticks:   dense  smooth     PW     G-vecs:    dense   smooth      PW
     Sum        2407     805    241                77665    15009    2445

     Using Slab Decomposition


     negative rho (up, down):  1.445E-02 0.000E+00
     Reading collected, re-writing distributed wavefunctions


     Dynamical matrices for ( 3, 3, 3)  uniform grid of q-points
     (   4 q-points):
       N         xq(1)         xq(2)         xq(3) 
       1   0.000000000   0.000000000   0.000000000
       2  -0.333333333   0.333333333  -0.333333333
       3   0.000000000   0.666666667   0.000000000
       4   0.666666667  -0.000000000   0.666666667

      Image parallelization. There are  2 images and    16 representations
      The estimated total work is   189 self-consistent (scf) runs
      I am image number     0 and my work is about   93 scf runs. I calculate: 
      q point number     1, representations:
       0 1 2
      q point number     2, representations:
       0 1 2 3 4
      q point number     3, representations:
       0 1 2 3

     Calculation of q =    0.0000000   0.0000000   0.0000000

     default                                                                    

     bravais-lattice index     =            2
     lattice parameter (alat)  =      10.7725  a.u.
     unit-cell volume          =     312.5286 (a.u.)^3
     number of atoms/cell      =            2
     number of atomic types    =            2
     kinetic-energy cut-off    =      50.0000  Ry
     charge density cut-off    =     600.0000  Ry
     convergence threshold     =      1.0E-16
     beta                      =       0.7000
     number of iterations used =            4
     Exchange-correlation= PBE
                           (   1   4   3   4   0   0   0)


     celldm(1)=   10.77250  celldm(2)=    0.00000  celldm(3)=    0.00000
     celldm(4)=    0.00000  celldm(5)=    0.00000  celldm(6)=    0.00000

     crystal axes: (cart. coord. in units of alat)
               a(1) = ( -0.5000  0.0000  0.5000 )  
               a(2) = (  0.0000  0.5000  0.5000 )  
               a(3) = ( -0.5000  0.5000  0.0000 )  

     reciprocal axes: (cart. coord. in units 2 pi/alat)
               b(1) = ( -1.0000 -1.0000  1.0000 )  
               b(2) = (  1.0000  1.0000  1.0000 )  
               b(3) = ( -1.0000  1.0000 -1.0000 )  


     Atoms inside the unit cell: 

     Cartesian axes

     site n.  atom      mass           positions (alat units)
        1     Na  22.9898   tau(    1) = (    0.00000    0.00000    0.00000  )
        2     Cl  35.4530   tau(    2) = (   -0.50000    0.50000    0.50000  )

     Computing dynamical matrix for 
                    q = (   0.0000000   0.0000000   0.0000000 )

     49 Sym.Ops. (with q -> -q+G )


     G cutoff = 1763.6998  (  77665 G-vectors)     FFT grid: ( 60, 60, 60)
     G cutoff =  587.8999  (  15009 G-vectors)  smooth grid: ( 36, 36, 36)
     number of k points=    10

     PseudoPot. # 1 for Na read from file:
     /home/user/pseudo_dir/na_pbe_v1.5.uspp.F.UPF
     MD5 check sum: 44600605ef58000f06b90626533354dc
     Pseudo is Ultrasoft, Zval =  9.0
     Generated by new atomic code, or converted to UPF format
     Using radial grid of  819 points,  5 beta functions with: 
                l(1) =   0
                l(2) =   0
                l(3) =   1
                l(4) =   1
                l(5) =   2
     Q(r) pseudized with  8 coefficients,  rinner =    1.250   1.250   1.250
                                                       1.250   1.250

     PseudoPot. # 2 for Cl read from file:
     /home/user/pseudo_dir/cl_pbe_v1.4.uspp.F.UPF
     MD5 check sum: fc6f6913ecf08c9257cb748ef0700058
     Pseudo is Ultrasoft + core correction, Zval =  7.0
     Generated by new atomic code, or converted to UPF format
     Using radial grid of  909 points,  6 beta functions with: 
                l(1) =   0
                l(2) =   0
                l(3) =   1
                l(4) =   1
                l(5) =   2
                l(6) =   2
     Q(r) pseudized with  8 coefficients,  rinner =    1.300   1.300   1.300
                                                       1.300   1.300

     Mode symmetry, O_h (m-3m)  point group:


     Electric field:
     Dielectric constant
     Born effective charges in two ways 


     Atomic displacements:
     There are    2 irreducible representations

     Representation     1      3 modes -  To be done

     Representation     2      3 modes -  To be done



     Alpha used in Ewald sum =   2.8000

     negative rho (up, down):  1.445E-02 0.000E+00
     PHONON       :     15.16s CPU     15.67s WALL


     Electric Fields Calculation

      iter #   1 total cpu time :    37.2 secs   av.it.:   5.6
      thresh= 1.000E-02 alpha_mix =  0.700 |ddv_scf|^2 =  2.491E-08

      iter #   2 total cpu time :    50.6 secs   av.it.:  13.3
      thresh= 1.578E-05 alpha_mix =  0.700 |ddv_scf|^2 =  3.247E-09

      iter #   3 total cpu time :    63.2 secs   av.it.:  11.9
      thresh= 5.698E-06 alpha_mix =  0.700 |ddv_scf|^2 =  2.227E-10

      iter #   4 total cpu time :    76.9 secs   av.it.:  12.5
      thresh= 1.492E-06 alpha_mix =  0.700 |ddv_scf|^2 =  2.096E-13

      iter #   5 total cpu time :    92.0 secs   av.it.:  13.8
      thresh= 4.578E-08 alpha_mix =  0.700 |ddv_scf|^2 =  9.604E-16

      iter #   6 total cpu time :   104.5 secs   av.it.:  12.6
      thresh= 3.099E-09 alpha_mix =  0.700 |ddv_scf|^2 =  4.538E-17

     End of electric fields calculation

          Dielectric constant in cartesian axis 

          (       2.492489872       0.000000000       0.000000000 )
          (       0.000000000       2.492489872      -0.000000000 )
          (       0.000000000      -0.000000000       2.492489872 )

          Effective charges (d Force / dE) in cartesian axis without acoustic sum rule applied (asr)

           atom      1   Na Mean Z*:        1.11209
      Ex  (        1.11209       -0.00000       -0.00000 )
      Ey  (       -0.00000        1.11209        0.00000 )
      Ez  (       -0.00000        0.00000        1.11209 )
           atom      2   Cl Mean Z*:       -1.11256
      Ex  (       -1.11256        0.00000       -0.00000 )
      Ey  (        0.00000       -1.11256       -0.00000 )
      Ez  (        0.00000        0.00000       -1.11256 )

          Effective charges Sum: Mean:       -0.00047
             -0.00047       -0.00000       -0.00000
              0.00000       -0.00047        0.00000
             -0.00000       -0.00000       -0.00047

          Effective charges (d Force / dE) in cartesian axis with asr applied: 
           atom      1   Na Mean Z*:        1.11233
      E*x (        1.11233       -0.00000       -0.00000 )
      E*y (       -0.00000        1.11233        0.00000 )
      E*z (       -0.00000        0.00000        1.11233 )
           atom      2   Cl Mean Z*:       -1.11233
      E*x (       -1.11233        0.00000        0.00000 )
      E*y (        0.00000       -1.11233       -0.00000 )
      E*z (        0.00000       -0.00000       -1.11233 )


     Representation #   1 modes #   1   2   3

     Self-consistent Calculation

      iter #   1 total cpu time :   124.9 secs   av.it.:   6.2
      thresh= 1.000E-02 alpha_mix =  0.700 |ddv_scf|^2 =  9.228E-08

      iter #   2 total cpu time :   140.3 secs   av.it.:  14.2
      thresh= 3.038E-05 alpha_mix =  0.700 |ddv_scf|^2 =  1.004E-08

      iter #   3 total cpu time :   153.6 secs   av.it.:  12.9
      thresh= 1.002E-05 alpha_mix =  0.700 |ddv_scf|^2 =  1.062E-10

      iter #   4 total cpu time :   170.6 secs   av.it.:  14.1
      thresh= 1.031E-06 alpha_mix =  0.700 |ddv_scf|^2 =  8.191E-13

      iter #   5 total cpu time :   187.2 secs   av.it.:  13.8
      thresh= 9.050E-08 alpha_mix =  0.700 |ddv_scf|^2 =  3.375E-15

      iter #   6 total cpu time :   204.2 secs   av.it.:  13.6
      thresh= 5.809E-09 alpha_mix =  0.700 |ddv_scf|^2 =  4.751E-17

     End of self-consistent calculation

     Convergence has been achieved 


     Representation #   2 modes #   4   5   6

     Self-consistent Calculation

      iter #   1 total cpu time :   216.3 secs   av.it.:   6.5
      thresh= 1.000E-02 alpha_mix =  0.700 |ddv_scf|^2 =  3.784E-07

      iter #   2 total cpu time :   230.7 secs   av.it.:  13.4
      thresh= 6.151E-05 alpha_mix =  0.700 |ddv_scf|^2 =  7.557E-09

      iter #   3 total cpu time :   245.3 secs   av.it.:  14.7
      thresh= 8.693E-06 alpha_mix =  0.700 |ddv_scf|^2 =  6.453E-10

      iter #   4 total cpu time :   260.2 secs   av.it.:  13.5
      thresh= 2.540E-06 alpha_mix =  0.700 |ddv_scf|^2 =  3.013E-11

      iter #   5 total cpu time :   275.7 secs   av.it.:  14.1
      thresh= 5.489E-07 alpha_mix =  0.700 |ddv_scf|^2 =  1.541E-13

      iter #   6 total cpu time :   291.0 secs   av.it.:  14.5
      thresh= 3.926E-08 alpha_mix =  0.700 |ddv_scf|^2 =  3.568E-16

      iter #   7 total cpu time :   305.4 secs   av.it.:  13.1
      thresh= 1.889E-09 alpha_mix =  0.700 |ddv_scf|^2 =  3.740E-17

     End of self-consistent calculation

     Convergence has been achieved 

     Number of q in the star =    1
     List of q in the star:
          1   0.000000000   0.000000000   0.000000000

          Dielectric constant in cartesian axis 

          (       2.492489872       0.000000000       0.000000000 )
          (       0.000000000       2.492489872      -0.000000000 )
          (       0.000000000      -0.000000000       2.492489872 )

          Effective charges (d Force / dE) in cartesian axis without acoustic sum rule applied (asr)

           atom      1   Na Mean Z*:        1.11209
      Ex  (        1.11209       -0.00000       -0.00000 )
      Ey  (       -0.00000        1.11209        0.00000 )
      Ez  (       -0.00000        0.00000        1.11209 )
           atom      2   Cl Mean Z*:       -1.11256
      Ex  (       -1.11256        0.00000       -0.00000 )
      Ey  (        0.00000       -1.11256       -0.00000 )
      Ez  (        0.00000        0.00000       -1.11256 )

          Effective charges Sum: Mean:       -0.00047
             -0.00047       -0.00000       -0.00000
              0.00000       -0.00047        0.00000
             -0.00000       -0.00000       -0.00047

          Effective charges (d Force / dE) in cartesian axis with asr applied: 
           atom      1   Na Mean Z*:        1.11233
      E*x (        1.11233       -0.00000       -0.00000 )
      E*y (       -0.00000        1.11233        0.00000 )
      E*z (       -0.00000        0.00000        1.11233 )
           atom      2   Cl Mean Z*:       -1.11233
      E*x (       -1.11233        0.00000        0.00000 )
      E*y (        0.00000       -1.11233       -0.00000 )
      E*z (        0.00000       -0.00000       -1.11233 )

          Effective charges (d P / du) in cartesian axis 

           atom      1   Na 
      Px  (        1.11206       -0.00000       -0.00000 )
      Py  (        0.00000        1.11206        0.00000 )
      Pz  (       -0.00000        0.00000        1.11206 )
           atom      2   Cl 
      Px  (       -1.11248        0.00000       -0.00000 )
      Py  (       -0.00000       -1.11248        0.00000 )
      Pz  (       -0.00000        0.00000       -1.11248 )

     Diagonalizing the dynamical matrix

     q = (    0.000000000   0.000000000   0.000000000 ) 

 **************************************************************************
     freq (    1) =      -0.196663 [THz] =      -6.559986 [cm-1]
     freq (    2) =      -0.196663 [THz] =      -6.559986 [cm-1]
     freq (    3) =      -0.196663 [THz] =      -6.559986 [cm-1]
     freq (    4) =       4.549038 [THz] =     151.739587 [cm-1]
     freq (    5) =       4.549038 [THz] =     151.739587 [cm-1]
     freq (    6) =       4.549038 [THz] =     151.739587 [cm-1]
 **************************************************************************

     Mode symmetry, O_h (m-3m)  point group:

     freq (   1-   3) =         -6.6  [cm-1]   --> T_1u G_15  G_4- I  
     freq (   4-   6) =        151.7  [cm-1]   --> T_1u G_15  G_4- I  

     Calculation of q =   -0.3333333   0.3333333  -0.3333333

     Subspace diagonalization in iterative solution of the eigenvalue problem:
     a serial algorithm will be used


     G-vector sticks info
     --------------------
     sticks:   dense  smooth     PW     G-vecs:    dense   smooth      PW
     Sum        2407     805    253                77665    15009    2733

     Using Slab Decomposition


     Title: 
     default                                                                    


     bravais-lattice index     =            2
     lattice parameter (alat)  =      10.7725  a.u.
     unit-cell volume          =     312.5286 (a.u.)^3
     number of atoms/cell      =            2
     number of atomic types    =            2
     number of electrons       =        16.00
     number of Kohn-Sham states=            8
     kinetic-energy cutoff     =      50.0000  Ry
     charge density cutoff     =     600.0000  Ry
     Exchange-correlation= PBE
                           (   1   4   3   4   0   0   0)

     celldm(1)=  10.772502  celldm(2)=   0.000000  celldm(3)=   0.000000
     celldm(4)=   0.000000  celldm(5)=   0.000000  celldm(6)=   0.000000

     crystal axes: (cart. coord. in units of alat)
               a(1) = (  -0.500000   0.000000   0.500000 )  
               a(2) = (   0.000000   0.500000   0.500000 )  
               a(3) = (  -0.500000   0.500000   0.000000 )  

     reciprocal axes: (cart. coord. in units 2 pi/alat)
               b(1) = ( -1.000000 -1.000000  1.000000 )  
               b(2) = (  1.000000  1.000000  1.000000 )  
               b(3) = ( -1.000000  1.000000 -1.000000 )  


     PseudoPot. # 1 for Na read from file:
     /home/user/pseudo_dir/na_pbe_v1.5.uspp.F.UPF
     MD5 check sum: 44600605ef58000f06b90626533354dc
     Pseudo is Ultrasoft, Zval =  9.0
     Generated by new atomic code, or converted to UPF format
     Using radial grid of  819 points,  5 beta functions with: 
                l(1) =   0
                l(2) =   0
                l(3) =   1
                l(4) =   1
                l(5) =   2
     Q(r) pseudized with  8 coefficients,  rinner =    1.250   1.250   1.250
                                                       1.250   1.250

     PseudoPot. # 2 for Cl read from file:
     /home/user/pseudo_dir/cl_pbe_v1.4.uspp.F.UPF
     MD5 check sum: fc6f6913ecf08c9257cb748ef0700058
     Pseudo is Ultrasoft + core correction, Zval =  7.0
     Generated by new atomic code, or converted to UPF format
     Using radial grid of  909 points,  6 beta functions with: 
                l(1) =   0
                l(2) =   0
                l(3) =   1
                l(4) =   1
                l(5) =   2
                l(6) =   2
     Q(r) pseudized with  8 coefficients,  rinner =    1.300   1.300   1.300
                                                       1.300   1.300

     atomic species   valence    mass     pseudopotential
        Na             9.00    22.98980     Na( 1.00)
        Cl             7.00    35.45300     Cl( 1.00)

     48 Sym. Ops., with inversion, found



   Cartesian axes

     site n.     atom                  positions (alat units)
         1           Na  tau(   1) = (   0.0000000   0.0000000   0.0000000  )
         2           Cl  tau(   2) = (  -0.5000000   0.5000000   0.5000000  )

     number of k points=    70
                       cart. coord. in units 2pi/alat
        k(    1) = (   0.0000000   0.0000000   0.0000000), wk =   0.0160000
        k(    2) = (  -0.3333333   0.3333333  -0.3333333), wk =   0.0000000
        k(    3) = (  -0.2000000   0.2000000  -0.2000000), wk =   0.0160000
        k(    4) = (  -0.5333333   0.5333333  -0.5333333), wk =   0.0000000
        k(    5) = (  -0.4000000   0.4000000  -0.4000000), wk =   0.0160000
        k(    6) = (  -0.7333333   0.7333333  -0.7333333), wk =   0.0000000
        k(    7) = (   0.0000000   0.4000000   0.0000000), wk =   0.0480000
        k(    8) = (  -0.3333333   0.7333333  -0.3333333), wk =   0.0000000
        k(    9) = (  -0.2000000   0.6000000  -0.2000000), wk =   0.0480000
        k(   10) = (  -0.5333333   0.9333333  -0.5333333), wk =   0.0000000
        k(   11) = (   0.6000000  -0.2000000   0.6000000), wk =   0.0480000
        k(   12) = (   0.2666667   0.1333333   0.2666667), wk =   0.0000000
        k(   13) = (   0.4000000   0.0000000   0.4000000), wk =   0.0480000
        k(   14) = (   0.0666667   0.3333333   0.0666667), wk =   0.0000000
        k(   15) = (   0.0000000   0.8000000   0.0000000), wk =   0.0480000
        k(   16) = (  -0.3333333   1.1333333  -0.3333333), wk =   0.0000000
        k(   17) = (   0.8000000   0.0000000   0.8000000), wk =   0.0480000
        k(   18) = (   0.4666667   0.3333333   0.4666667), wk =   0.0000000
        k(   19) = (   0.6000000  -0.2000000   1.0000000), wk =   0.0960000
        k(   20) = (   0.2666667   0.1333333   0.6666667), wk =   0.0000000
        k(   21) = (   0.2000000   0.2000000  -0.2000000), wk =   0.0480000
        k(   22) = (  -0.1333333   0.5333333  -0.5333333), wk =   0.0000000
        k(   23) = (   0.2000000   0.2000000   0.2000000), wk =   0.0480000
        k(   24) = (  -0.1333333   0.5333333  -0.1333333), wk =   0.0000000
        k(   25) = (   0.2000000  -0.2000000   0.2000000), wk =   0.0160000
        k(   26) = (  -0.1333333   0.1333333  -0.1333333), wk =   0.0000000
        k(   27) = (   0.4000000   0.4000000  -0.4000000), wk =   0.0480000
        k(   28) = (   0.0666667   0.7333333  -0.7333333), wk =   0.0000000
        k(   29) = (   0.4000000   0.4000000   0.4000000), wk =   0.0480000
        k(   30) = (   0.0666667   0.7333333   0.0666667), wk =   0.0000000
        k(   31) = (   0.4000000  -0.4000000   0.4000000), wk =   0.0160000
        k(   32) = (   0.0666667  -0.0666667   0.0666667), wk =   0.0000000
        k(   33) = (   0.0000000  -0.4000000   0.0000000), wk =   0.0480000
        k(   34) = (  -0.3333333  -0.0666667  -0.3333333), wk =   0.0000000
        k(   35) = (   0.2000000   0.6000000  -0.2000000), wk =   0.0960000
        k(   36) = (  -0.1333333   0.9333333  -0.5333333), wk =   0.0000000
        k(   37) = (   0.2000000   0.6000000   0.2000000), wk =   0.0480000
        k(   38) = (  -0.1333333   0.9333333  -0.1333333), wk =   0.0000000
        k(   39) = (   0.2000000  -0.6000000   0.2000000), wk =   0.0480000
        k(   40) = (  -0.1333333  -0.2666667  -0.1333333), wk =   0.0000000
        k(   41) = (  -0.2000000  -0.6000000  -0.2000000), wk =   0.0480000
        k(   42) = (  -0.5333333  -0.2666667  -0.5333333), wk =   0.0000000
        k(   43) = (   0.6000000  -0.2000000  -0.2000000), wk =   0.0960000
        k(   44) = (   0.2666667   0.1333333  -0.5333333), wk =   0.0000000
        k(   45) = (  -0.6000000  -0.2000000   0.6000000), wk =   0.0960000
        k(   46) = (  -0.9333333   0.1333333   0.2666667), wk =   0.0000000
        k(   47) = (  -0.6000000  -0.2000000  -0.6000000), wk =   0.0480000
        k(   48) = (  -0.9333333   0.1333333  -0.9333333), wk =   0.0000000
        k(   49) = (  -0.6000000   0.2000000  -0.6000000), wk =   0.0480000
        k(   50) = (  -0.9333333   0.5333333  -0.9333333), wk =   0.0000000
        k(   51) = (   0.6000000   0.2000000   0.6000000), wk =   0.0480000
        k(   52) = (   0.2666667   0.5333333   0.2666667), wk =   0.0000000
        k(   53) = (  -0.2000000   0.6000000   0.6000000), wk =   0.0960000
        k(   54) = (  -0.5333333   0.9333333   0.2666667), wk =   0.0000000
        k(   55) = (  -0.4000000   0.0000000   0.4000000), wk =   0.0960000
        k(   56) = (  -0.7333333   0.3333333   0.0666667), wk =   0.0000000
        k(   57) = (  -0.4000000   0.0000000  -0.4000000), wk =   0.0480000
        k(   58) = (  -0.7333333   0.3333333  -0.7333333), wk =   0.0000000
        k(   59) = (   0.0000000  -0.8000000   0.0000000), wk =   0.0480000
        k(   60) = (  -0.3333333  -0.4666667  -0.3333333), wk =   0.0000000
        k(   61) = (  -0.8000000   0.0000000   0.8000000), wk =   0.0960000
        k(   62) = (  -1.1333333   0.3333333   0.4666667), wk =   0.0000000
        k(   63) = (  -0.8000000   0.0000000  -0.8000000), wk =   0.0480000
        k(   64) = (  -1.1333333   0.3333333  -1.1333333), wk =   0.0000000
        k(   65) = (  -0.6000000  -0.2000000   1.0000000), wk =   0.0960000
        k(   66) = (  -0.9333333   0.1333333   0.6666667), wk =   0.0000000
        k(   67) = (  -1.0000000   0.2000000  -0.6000000), wk =   0.0960000
        k(   68) = (  -1.3333333   0.5333333  -0.9333333), wk =   0.0000000
        k(   69) = (   1.0000000   0.2000000   0.6000000), wk =   0.0960000
        k(   70) = (   0.6666667   0.5333333   0.2666667), wk =   0.0000000

     Dense  grid:    77665 G-vectors     FFT dimensions: (  60,  60,  60)

     Smooth grid:    15009 G-vectors     FFT dimensions: (  36,  36,  36)

     Estimated max dynamical RAM per process >     253.94 MB

     The potential is recalculated from file :
     ./_ph0/nacl.save/charge-density


     negative rho (up, down):  1.445E-02 0.000E+00
     Starting wfcs are    9 atomic wfcs

     Band Structure Calculation
     Davidson diagonalization with overlap

     ethr =  6.25E-11,  avg # of iterations = 11.3

     total cpu time spent up to now is       16.2 secs

     End of band structure calculation

          k = 0.0000 0.0000 0.0000 (  1837 PWs)   bands (ev):

   -48.2166 -20.1300 -20.1300 -20.1300 -11.8270   0.7629   0.7629   0.7629

          k =-0.3333 0.3333-0.3333 (  1865 PWs)   bands (ev):

   -48.2161 -20.1487 -20.1314 -20.1314 -11.6028  -0.6924   0.5744   0.5744

          k =-0.2000 0.2000-0.2000 (  1877 PWs)   bands (ev):

   -48.2163 -20.1387 -20.1307 -20.1307 -11.7259   0.0031   0.6739   0.6739

          k =-0.5333 0.5333-0.5333 (  1871 PWs)   bands (ev):

   -48.2159 -20.1546 -20.1319 -20.1319 -11.5274  -1.0502   0.5177   0.5177

          k =-0.4000 0.4000-0.4000 (  1877 PWs)   bands (ev):

   -48.2160 -20.1525 -20.1317 -20.1317 -11.5543  -0.9271   0.5376   0.5376

          k =-0.7333 0.7333-0.7333 (  1880 PWs)   bands (ev):

   -48.2162 -20.1438 -20.1310 -20.1310 -11.6636  -0.3699   0.6225   0.6225

          k = 0.0000 0.4000 0.0000 (  1868 PWs)   bands (ev):

   -48.2163 -20.1377 -20.1324 -20.1324 -11.6982  -0.0016   0.5516   0.5516

          k =-0.3333 0.7333-0.3333 (  1858 PWs)   bands (ev):

   -48.2158 -20.1506 -20.1363 -20.1335 -11.5005  -0.8367   0.1052   0.4073

          k =-0.2000 0.6000-0.2000 (  1875 PWs)   bands (ev):

   -48.2160 -20.1469 -20.1344 -20.1338 -11.5595  -0.6304   0.2983   0.4108

          k =-0.5333 0.9333-0.5333 (  1870 PWs)   bands (ev):

   -48.2160 -20.1473 -20.1365 -20.1316 -11.5587  -0.6154   0.1323   0.5426

          k = 0.6000-0.2000 0.6000 (  1859 PWs)   bands (ev):

   -48.2158 -20.1505 -20.1369 -20.1329 -11.5004  -0.8255   0.0566   0.4382

          k = 0.2667 0.1333 0.2667 (  1879 PWs)   bands (ev):

   -48.2163 -20.1405 -20.1317 -20.1305 -11.6975  -0.1395   0.5852   0.6719

          k = 0.4000 0.0000 0.4000 (  1873 PWs)   bands (ev):

   -48.2161 -20.1449 -20.1352 -20.1310 -11.6063  -0.4606   0.2642   0.5991

          k = 0.0667 0.3333 0.0667 (  1874 PWs)   bands (ev):

   -48.2163 -20.1367 -20.1317 -20.1315 -11.7263   0.1144   0.6071   0.6141

          k = 0.0000 0.8000 0.0000 (  1868 PWs)   bands (ev):

   -48.2158 -20.1463 -20.1364 -20.1364 -11.5080  -0.7284   0.2456   0.2456

          k =-0.3333 1.1333-0.3333 (  1854 PWs)   bands (ev):

   -48.2158 -20.1479 -20.1397 -20.1339 -11.4842  -0.6819  -0.1688   0.3734

          k = 0.8000 0.0000 0.8000 (  1864 PWs)   bands (ev):

   -48.2157 -20.1454 -20.1411 -20.1358 -11.4713  -0.6555  -0.1543   0.2611

          k = 0.4667 0.3333 0.4667 (  1870 PWs)   bands (ev):

   -48.2159 -20.1530 -20.1326 -20.1317 -11.5386  -0.9577   0.4577   0.5293

          k = 0.6000-0.2000 1.0000 (  1850 PWs)   bands (ev):

   -48.2158 -20.1458 -20.1398 -20.1360 -11.4827  -0.5880  -0.1398   0.2140

          k = 0.2667 0.1333 0.6667 (  1867 PWs)   bands (ev):

   -48.2159 -20.1472 -20.1362 -20.1342 -11.5312  -0.6619   0.1644   0.3660

          k = 0.2000 0.2000-0.2000 (  1877 PWs)   bands (ev):

   -48.2163 -20.1387 -20.1307 -20.1307 -11.7259   0.0031   0.6739   0.6739

          k =-0.1333 0.5333-0.5333 (  1861 PWs)   bands (ev):

   -48.2159 -20.1493 -20.1371 -20.1323 -11.5211  -0.7452   0.0623   0.4857

          k = 0.2000 0.2000 0.2000 (  1877 PWs)   bands (ev):

   -48.2163 -20.1387 -20.1307 -20.1307 -11.7259   0.0031   0.6739   0.6739

          k =-0.1333 0.5333-0.1333 (  1876 PWs)   bands (ev):

   -48.2161 -20.1437 -20.1336 -20.1336 -11.6072  -0.4331   0.4028   0.4446

          k = 0.2000-0.2000 0.2000 (  1877 PWs)   bands (ev):

   -48.2163 -20.1387 -20.1307 -20.1307 -11.7259   0.0031   0.6739   0.6739

          k =-0.1333 0.1333-0.1333 (  1874 PWs)   bands (ev):

   -48.2165 -20.1342 -20.1303 -20.1303 -11.7791   0.3708   0.7198   0.7198

          k = 0.4000 0.4000-0.4000 (  1877 PWs)   bands (ev):

   -48.2160 -20.1525 -20.1317 -20.1317 -11.5543  -0.9271   0.5376   0.5376

          k = 0.0667 0.7333-0.7333 (  1860 PWs)   bands (ev):

   -48.2157 -20.1454 -20.1420 -20.1349 -11.4739  -0.5806  -0.2838   0.3110

          k = 0.4000 0.4000 0.4000 (  1877 PWs)   bands (ev):

   -48.2160 -20.1525 -20.1317 -20.1317 -11.5543  -0.9271   0.5376   0.5376

          k = 0.0667 0.7333 0.0667 (  1862 PWs)   bands (ev):

   -48.2158 -20.1456 -20.1361 -20.1357 -11.5279  -0.6586   0.2496   0.2876

          k = 0.4000-0.4000 0.4000 (  1877 PWs)   bands (ev):

   -48.2160 -20.1525 -20.1317 -20.1317 -11.5543  -0.9271   0.5376   0.5376

          k = 0.0667-0.0667 0.0667 (  1877 PWs)   bands (ev):

   -48.2165 -20.1311 -20.1301 -20.1301 -11.8146   0.6538   0.7515   0.7515

          k = 0.0000-0.4000 0.0000 (  1868 PWs)   bands (ev):

   -48.2163 -20.1377 -20.1324 -20.1324 -11.6982  -0.0016   0.5516   0.5516

          k =-0.3333-0.0667-0.3333 (  1883 PWs)   bands (ev):

   -48.2162 -20.1426 -20.1334 -20.1306 -11.6554  -0.2985   0.4314   0.6452

          k = 0.2000 0.6000-0.2000 (  1875 PWs)   bands (ev):

   -48.2160 -20.1469 -20.1344 -20.1338 -11.5595  -0.6304   0.2983   0.4108

          k =-0.1333 0.9333-0.5333 (  1860 PWs)   bands (ev):

   -48.2157 -20.1448 -20.1410 -20.1368 -11.4709  -0.5069  -0.2640   0.1616

          k = 0.2000 0.6000 0.2000 (  1875 PWs)   bands (ev):

   -48.2160 -20.1469 -20.1344 -20.1338 -11.5595  -0.6304   0.2983   0.4108

          k =-0.1333 0.9333-0.1333 (  1853 PWs)   bands (ev):

   -48.2157 -20.1465 -20.1388 -20.1364 -11.4769  -0.7385   0.0319   0.2313

          k = 0.2000-0.6000 0.2000 (  1875 PWs)   bands (ev):

   -48.2160 -20.1469 -20.1344 -20.1338 -11.5595  -0.6304   0.2983   0.4108

          k =-0.1333-0.2667-0.1333 (  1874 PWs)   bands (ev):

   -48.2164 -20.1373 -20.1311 -20.1306 -11.7360   0.1031   0.6508   0.6738

          k =-0.2000-0.6000-0.2000 (  1875 PWs)   bands (ev):

   -48.2160 -20.1469 -20.1344 -20.1338 -11.5595  -0.6304   0.2983   0.4108

          k =-0.5333-0.2667-0.5333 (  1865 PWs)   bands (ev):

   -48.2159 -20.1523 -20.1344 -20.1322 -11.5196  -0.9235   0.2838   0.4937

          k = 0.6000-0.2000-0.2000 (  1875 PWs)   bands (ev):

   -48.2160 -20.1469 -20.1344 -20.1338 -11.5595  -0.6304   0.2983   0.4108

          k = 0.2667 0.1333-0.5333 (  1871 PWs)   bands (ev):

   -48.2160 -20.1462 -20.1344 -20.1325 -11.5839  -0.5650   0.3304   0.4865

          k =-0.6000-0.2000 0.6000 (  1859 PWs)   bands (ev):

   -48.2158 -20.1505 -20.1369 -20.1329 -11.5004  -0.8255   0.0566   0.4382

          k =-0.9333 0.1333 0.2667 (  1858 PWs)   bands (ev):

   -48.2157 -20.1455 -20.1405 -20.1362 -11.4727  -0.6460  -0.1306   0.2283

          k =-0.6000-0.2000-0.6000 (  1859 PWs)   bands (ev):

   -48.2158 -20.1505 -20.1369 -20.1329 -11.5004  -0.8255   0.0566   0.4382

          k =-0.9333 0.1333-0.9333 (  1859 PWs)   bands (ev):

   -48.2157 -20.1468 -20.1372 -20.1366 -11.4899  -0.7630   0.1758   0.2259

          k =-0.6000 0.2000-0.6000 (  1859 PWs)   bands (ev):

   -48.2158 -20.1505 -20.1369 -20.1329 -11.5004  -0.8255   0.0566   0.4382

          k =-0.9333 0.5333-0.9333 (  1871 PWs)   bands (ev):

   -48.2162 -20.1403 -20.1331 -20.1330 -11.6563  -0.2074   0.4882   0.4941

          k = 0.6000 0.2000 0.6000 (  1859 PWs)   bands (ev):

   -48.2158 -20.1505 -20.1369 -20.1329 -11.5004  -0.8255   0.0566   0.4382

          k = 0.2667 0.5333 0.2667 (  1873 PWs)   bands (ev):

   -48.2160 -20.1490 -20.1329 -20.1329 -11.5657  -0.7280   0.4109   0.4717

          k =-0.2000 0.6000 0.6000 (  1859 PWs)   bands (ev):

   -48.2158 -20.1505 -20.1369 -20.1329 -11.5004  -0.8255   0.0566   0.4382

          k =-0.5333 0.9333 0.2667 (  1863 PWs)   bands (ev):

   -48.2158 -20.1469 -20.1398 -20.1345 -11.4893  -0.6170  -0.1596   0.3147

          k =-0.4000 0.0000 0.4000 (  1873 PWs)   bands (ev):

   -48.2161 -20.1449 -20.1352 -20.1310 -11.6063  -0.4606   0.2642   0.5991

          k =-0.7333 0.3333 0.0667 (  1861 PWs)   bands (ev):

   -48.2158 -20.1467 -20.1381 -20.1349 -11.5040  -0.6473   0.0103   0.2944

          k =-0.4000 0.0000-0.4000 (  1873 PWs)   bands (ev):

   -48.2161 -20.1449 -20.1352 -20.1310 -11.6063  -0.4606   0.2642   0.5991

          k =-0.7333 0.3333-0.7333 (  1867 PWs)   bands (ev):

   -48.2159 -20.1493 -20.1354 -20.1338 -11.5216  -0.7703   0.1921   0.3977

          k = 0.0000-0.8000 0.0000 (  1868 PWs)   bands (ev):

   -48.2158 -20.1463 -20.1364 -20.1364 -11.5080  -0.7284   0.2456   0.2456

          k =-0.3333-0.4667-0.3333 (  1871 PWs)   bands (ev):

   -48.2160 -20.1511 -20.1321 -20.1319 -11.5639  -0.8421   0.5121   0.5170

          k =-0.8000 0.0000 0.8000 (  1864 PWs)   bands (ev):

   -48.2157 -20.1454 -20.1411 -20.1358 -11.4713  -0.6555  -0.1543   0.2611

          k =-1.1333 0.3333 0.4667 (  1857 PWs)   bands (ev):

   -48.2158 -20.1487 -20.1386 -20.1334 -11.4955  -0.7207  -0.0740   0.4004

          k =-0.8000 0.0000-0.8000 (  1864 PWs)   bands (ev):

   -48.2157 -20.1454 -20.1411 -20.1358 -11.4713  -0.6555  -0.1543   0.2611

          k =-1.1333 0.3333-1.1333 (  1865 PWs)   bands (ev):

   -48.2159 -20.1456 -20.1356 -20.1348 -11.5461  -0.6058   0.2436   0.3457

          k =-0.6000-0.2000 1.0000 (  1850 PWs)   bands (ev):

   -48.2158 -20.1458 -20.1398 -20.1360 -11.4827  -0.5880  -0.1398   0.2140

          k =-0.9333 0.1333 0.6667 (  1857 PWs)   bands (ev):

   -48.2157 -20.1456 -20.1396 -20.1368 -11.4768  -0.6179  -0.0978   0.1749

          k =-1.0000 0.2000-0.6000 (  1850 PWs)   bands (ev):

   -48.2158 -20.1458 -20.1398 -20.1360 -11.4827  -0.5880  -0.1398   0.2140

          k =-1.3333 0.5333-0.9333 (  1873 PWs)   bands (ev):

   -48.2161 -20.1453 -20.1349 -20.1314 -11.6005  -0.4935   0.2895   0.5682

          k = 1.0000 0.2000 0.6000 (  1850 PWs)   bands (ev):

   -48.2158 -20.1458 -20.1398 -20.1360 -11.4827  -0.5880  -0.1398   0.2140

          k = 0.6667 0.5333 0.2667 (  1864 PWs)   bands (ev):

   -48.2158 -20.1515 -20.1357 -20.1330 -11.5030  -0.8860   0.1624   0.4312

     highest occupied level (ev):     0.7629

     Writing config to output data dir ./_ph0/nacl.save/

     default                                                                    

     bravais-lattice index     =            2
     lattice parameter (alat)  =      10.7725  a.u.
     unit-cell volume          =     312.5286 (a.u.)^3
     number of atoms/cell      =            2
     number of atomic types    =            2
     kinetic-energy cut-off    =      50.0000  Ry
     charge density cut-off    =     600.0000  Ry
     convergence threshold     =      1.0E-16
     beta                      =       0.7000
     number of iterations used =            4
     Exchange-correlation= PBE
                           (   1   4   3   4   0   0   0)


     celldm(1)=   10.77250  celldm(2)=    0.00000  celldm(3)=    0.00000
     celldm(4)=    0.00000  celldm(5)=    0.00000  celldm(6)=    0.00000

     crystal axes: (cart. coord. in units of alat)
               a(1) = ( -0.5000  0.0000  0.5000 )  
               a(2) = (  0.0000  0.5000  0.5000 )  
               a(3) = ( -0.5000  0.5000  0.0000 )  

     reciprocal axes: (cart. coord. in units 2 pi/alat)
               b(1) = ( -1.0000 -1.0000  1.0000 )  
               b(2) = (  1.0000  1.0000  1.0000 )  
               b(3) = ( -1.0000  1.0000 -1.0000 )  


     Atoms inside the unit cell: 

     Cartesian axes

     site n.  atom      mass           positions (alat units)
        1     Na  22.9898   tau(    1) = (    0.00000    0.00000    0.00000  )
        2     Cl  35.4530   tau(    2) = (   -0.50000    0.50000    0.50000  )

     Computing dynamical matrix for 
                    q = (  -0.3333333   0.3333333  -0.3333333 )

      6 Sym.Ops. (no q -> -q+G )


     G cutoff = 1763.6998  (  77665 G-vectors)     FFT grid: ( 60, 60, 60)
     G cutoff =  587.8999  (  15009 G-vectors)  smooth grid: ( 36, 36, 36)
     number of k points=    70

     PseudoPot. # 1 for Na read from file:
     /home/user/pseudo_dir/na_pbe_v1.5.uspp.F.UPF
     MD5 check sum: 44600605ef58000f06b90626533354dc
     Pseudo is Ultrasoft, Zval =  9.0
     Generated by new atomic code, or converted to UPF format
     Using radial grid of  819 points,  5 beta functions with: 
                l(1) =   0
                l(2) =   0
                l(3) =   1
                l(4) =   1
                l(5) =   2
     Q(r) pseudized with  8 coefficients,  rinner =    1.250   1.250   1.250
                                                       1.250   1.250

     PseudoPot. # 2 for Cl read from file:
     /home/user/pseudo_dir/cl_pbe_v1.4.uspp.F.UPF
     MD5 check sum: fc6f6913ecf08c9257cb748ef0700058
     Pseudo is Ultrasoft + core correction, Zval =  7.0
     Generated by new atomic code, or converted to UPF format
     Using radial grid of  909 points,  6 beta functions with: 
                l(1) =   0
                l(2) =   0
                l(3) =   1
                l(4) =   1
                l(5) =   2
                l(6) =   2
     Q(r) pseudized with  8 coefficients,  rinner =    1.300   1.300   1.300
                                                       1.300   1.300

     Mode symmetry, C_3v (3m)   point group:


     Atomic displacements:
     There are    4 irreducible representations

     Representation     1      1 modes -  To be done

     Representation     2      1 modes -  To be done

     Representation     3      2 modes -  To be done

     Representation     4      2 modes -  To be done



     Alpha used in Ewald sum =   2.8000

     negative rho (up, down):  1.445E-02 0.000E+00
     PHONON       :   5m29.34s CPU   5m42.69s WALL



     Representation #   1 mode #   1

     Self-consistent Calculation

      iter #   1 total cpu time :   351.4 secs   av.it.:   7.1
      thresh= 1.000E-02 alpha_mix =  0.700 |ddv_scf|^2 =  2.040E-05

      iter #   2 total cpu time :   361.4 secs   av.it.:  10.7
      thresh= 4.516E-04 alpha_mix =  0.700 |ddv_scf|^2 =  4.523E-06

      iter #   3 total cpu time :   371.5 secs   av.it.:  10.6
      thresh= 2.127E-04 alpha_mix =  0.700 |ddv_scf|^2 =  5.575E-07

      iter #   4 total cpu time :   382.9 secs   av.it.:  10.6
      thresh= 7.467E-05 alpha_mix =  0.700 |ddv_scf|^2 =  9.932E-09

      iter #   5 total cpu time :   394.5 secs   av.it.:  11.3
      thresh= 9.966E-06 alpha_mix =  0.700 |ddv_scf|^2 =  2.698E-10

      iter #   6 total cpu time :   406.5 secs   av.it.:  12.0
      thresh= 1.643E-06 alpha_mix =  0.700 |ddv_scf|^2 =  4.328E-11

      iter #   7 total cpu time :   418.9 secs   av.it.:  10.2
      thresh= 6.579E-07 alpha_mix =  0.700 |ddv_scf|^2 =  9.151E-13

      iter #   8 total cpu time :   429.3 secs   av.it.:  11.2
      thresh= 9.566E-08 alpha_mix =  0.700 |ddv_scf|^2 =  1.588E-14

      iter #   9 total cpu time :   441.6 secs   av.it.:  12.3
      thresh= 1.260E-08 alpha_mix =  0.700 |ddv_scf|^2 =  1.832E-16

      iter #  10 total cpu time :   452.7 secs   av.it.:  12.2
      thresh= 1.354E-09 alpha_mix =  0.700 |ddv_scf|^2 =  9.788E-18

     End of self-consistent calculation

     Convergence has been achieved 


     Representation #   2 mode #   2

     Self-consistent Calculation

      iter #   1 total cpu time :   461.3 secs   av.it.:   6.7
      thresh= 1.000E-02 alpha_mix =  0.700 |ddv_scf|^2 =  2.945E-05

      iter #   2 total cpu time :   473.2 secs   av.it.:  10.7
      thresh= 5.427E-04 alpha_mix =  0.700 |ddv_scf|^2 =  3.067E-05

      iter #   3 total cpu time :   482.7 secs   av.it.:   9.3
      thresh= 5.538E-04 alpha_mix =  0.700 |ddv_scf|^2 =  1.081E-08

      iter #   4 total cpu time :   494.5 secs   av.it.:  12.2
      thresh= 1.040E-05 alpha_mix =  0.700 |ddv_scf|^2 =  1.475E-09

      iter #   5 total cpu time :   504.9 secs   av.it.:  11.4
      thresh= 3.840E-06 alpha_mix =  0.700 |ddv_scf|^2 =  6.266E-11

      iter #   6 total cpu time :   515.0 secs   av.it.:  11.7
      thresh= 7.916E-07 alpha_mix =  0.700 |ddv_scf|^2 =  1.150E-12

      iter #   7 total cpu time :   525.7 secs   av.it.:  11.9
      thresh= 1.072E-07 alpha_mix =  0.700 |ddv_scf|^2 =  3.830E-14

      iter #   8 total cpu time :   536.5 secs   av.it.:  13.1
      thresh= 1.957E-08 alpha_mix =  0.700 |ddv_scf|^2 =  4.111E-15

      iter #   9 total cpu time :   547.8 secs   av.it.:  12.6
      thresh= 6.412E-09 alpha_mix =  0.700 |ddv_scf|^2 =  1.158E-16

      iter #  10 total cpu time :   560.3 secs   av.it.:  12.1
      thresh= 1.076E-09 alpha_mix =  0.700 |ddv_scf|^2 =  5.458E-18

     End of self-consistent calculation

     Convergence has been achieved 


     Representation #   3 modes #   3   4

     Self-consistent Calculation

      iter #   1 total cpu time :   575.4 secs   av.it.:   6.6
      thresh= 1.000E-02 alpha_mix =  0.700 |ddv_scf|^2 =  2.337E-07

      iter #   2 total cpu time :   603.2 secs   av.it.:  13.8
      thresh= 4.834E-05 alpha_mix =  0.700 |ddv_scf|^2 =  2.692E-08

      iter #   3 total cpu time :   635.6 secs   av.it.:  12.7
      thresh= 1.641E-05 alpha_mix =  0.700 |ddv_scf|^2 =  2.608E-10

      iter #   4 total cpu time :   668.7 secs   av.it.:  13.7
      thresh= 1.615E-06 alpha_mix =  0.700 |ddv_scf|^2 =  2.239E-12

      iter #   5 total cpu time :   699.3 secs   av.it.:  13.8
      thresh= 1.496E-07 alpha_mix =  0.700 |ddv_scf|^2 =  4.698E-15

      iter #   6 total cpu time :   724.5 secs   av.it.:  13.4
      thresh= 6.854E-09 alpha_mix =  0.700 |ddv_scf|^2 =  1.660E-16

      iter #   7 total cpu time :   748.7 secs   av.it.:  12.9
      thresh= 1.288E-09 alpha_mix =  0.700 |ddv_scf|^2 =  1.847E-18

     End of self-consistent calculation

     Convergence has been achieved 


     Representation #   4 modes #   5   6

     Self-consistent Calculation

      iter #   1 total cpu time :   764.6 secs   av.it.:   6.9
      thresh= 1.000E-02 alpha_mix =  0.700 |ddv_scf|^2 =  8.557E-07

      iter #   2 total cpu time :   788.9 secs   av.it.:  12.6
      thresh= 9.251E-05 alpha_mix =  0.700 |ddv_scf|^2 =  1.456E-08

      iter #   3 total cpu time :   812.3 secs   av.it.:  14.1
      thresh= 1.207E-05 alpha_mix =  0.700 |ddv_scf|^2 =  6.466E-10

      iter #   4 total cpu time :   836.6 secs   av.it.:  13.1
      thresh= 2.543E-06 alpha_mix =  0.700 |ddv_scf|^2 =  5.812E-11

      iter #   5 total cpu time :   860.4 secs   av.it.:  13.5
      thresh= 7.624E-07 alpha_mix =  0.700 |ddv_scf|^2 =  5.513E-13

      iter #   6 total cpu time :   885.5 secs   av.it.:  13.6
      thresh= 7.425E-08 alpha_mix =  0.700 |ddv_scf|^2 =  4.308E-15

      iter #   7 total cpu time :   909.5 secs   av.it.:  14.0
      thresh= 6.564E-09 alpha_mix =  0.700 |ddv_scf|^2 =  2.185E-16

      iter #   8 total cpu time :   932.6 secs   av.it.:  13.1
      thresh= 1.478E-09 alpha_mix =  0.700 |ddv_scf|^2 =  3.450E-18

     End of self-consistent calculation

     Convergence has been achieved 

     Number of q in the star =    8
     List of q in the star:
          1  -0.333333333   0.333333333  -0.333333333
          2   0.333333333   0.333333333  -0.333333333
          3   0.333333333   0.333333333   0.333333333
          4  -0.333333333   0.333333333   0.333333333
          5   0.333333333  -0.333333333   0.333333333
          6  -0.333333333  -0.333333333  -0.333333333
          7   0.333333333  -0.333333333  -0.333333333
          8  -0.333333333  -0.333333333   0.333333333

     Diagonalizing the dynamical matrix

     q = (   -0.333333333   0.333333333  -0.333333333 ) 

 **************************************************************************
     freq (    1) =       2.536997 [THz] =      84.625110 [cm-1]
     freq (    2) =       2.536997 [THz] =      84.625110 [cm-1]
     freq (    3) =       4.046567 [THz] =     134.978948 [cm-1]
     freq (    4) =       4.159574 [THz] =     138.748461 [cm-1]
     freq (    5) =       4.159574 [THz] =     138.748461 [cm-1]
     freq (    6) =       6.776803 [THz] =     226.049818 [cm-1]
 **************************************************************************

     Mode symmetry, C_3v (3m)   point group:

     freq (   1-   2) =         84.6  [cm-1]   --> E    L_3           
     freq (   3-   3) =        135.0  [cm-1]   --> A_1  L_1           
     freq (   4-   5) =        138.7  [cm-1]   --> E    L_3           
     freq (   6-   6) =        226.0  [cm-1]   --> A_1  L_1           

     Calculation of q =    0.0000000   0.6666667   0.0000000

     G-vector sticks info
     --------------------
     sticks:   dense  smooth     PW     G-vecs:    dense   smooth      PW
     Sum        2407     805    253                77665    15009    2733

     Using Slab Decomposition


     Title: 
     default                                                                    


     bravais-lattice index     =            2
     lattice parameter (alat)  =      10.7725  a.u.
     unit-cell volume          =     312.5286 (a.u.)^3
     number of atoms/cell      =            2
     number of atomic types    =            2
     number of electrons       =        16.00
     number of Kohn-Sham states=            8
     kinetic-energy cutoff     =      50.0000  Ry
     charge density cutoff     =     600.0000  Ry
     Exchange-correlation= PBE
                           (   1   4   3   4   0   0   0)

     celldm(1)=  10.772502  celldm(2)=   0.000000  celldm(3)=   0.000000
     celldm(4)=   0.000000  celldm(5)=   0.000000  celldm(6)=   0.000000

     crystal axes: (cart. coord. in units of alat)
               a(1) = (  -0.500000   0.000000   0.500000 )  
               a(2) = (   0.000000   0.500000   0.500000 )  
               a(3) = (  -0.500000   0.500000   0.000000 )  

     reciprocal axes: (cart. coord. in units 2 pi/alat)
               b(1) = ( -1.000000 -1.000000  1.000000 )  
               b(2) = (  1.000000  1.000000  1.000000 )  
               b(3) = ( -1.000000  1.000000 -1.000000 )  


     PseudoPot. # 1 for Na read from file:
     /home/user/pseudo_dir/na_pbe_v1.5.uspp.F.UPF
     MD5 check sum: 44600605ef58000f06b90626533354dc
     Pseudo is Ultrasoft, Zval =  9.0
     Generated by new atomic code, or converted to UPF format
     Using radial grid of  819 points,  5 beta functions with: 
                l(1) =   0
                l(2) =   0
                l(3) =   1
                l(4) =   1
                l(5) =   2
     Q(r) pseudized with  8 coefficients,  rinner =    1.250   1.250   1.250
                                                       1.250   1.250

     PseudoPot. # 2 for Cl read from file:
     /home/user/pseudo_dir/cl_pbe_v1.4.uspp.F.UPF
     MD5 check sum: fc6f6913ecf08c9257cb748ef0700058
     Pseudo is Ultrasoft + core correction, Zval =  7.0
     Generated by new atomic code, or converted to UPF format
     Using radial grid of  909 points,  6 beta functions with: 
                l(1) =   0
                l(2) =   0
                l(3) =   1
                l(4) =   1
                l(5) =   2
                l(6) =   2
     Q(r) pseudized with  8 coefficients,  rinner =    1.300   1.300   1.300
                                                       1.300   1.300

     atomic species   valence    mass     pseudopotential
        Na             9.00    22.98980     Na( 1.00)
        Cl             7.00    35.45300     Cl( 1.00)

     48 Sym. Ops., with inversion, found



   Cartesian axes

     site n.     atom                  positions (alat units)
         1           Na  tau(   1) = (   0.0000000   0.0000000   0.0000000  )
         2           Cl  tau(   2) = (  -0.5000000   0.5000000   0.5000000  )

     number of k points=    60
                       cart. coord. in units 2pi/alat
        k(    1) = (   0.0000000   0.0000000   0.0000000), wk =   0.0160000
        k(    2) = (   0.0000000   0.6666667   0.0000000), wk =   0.0000000
        k(    3) = (  -0.2000000   0.2000000  -0.2000000), wk =   0.0640000
        k(    4) = (  -0.2000000   0.8666667  -0.2000000), wk =   0.0000000
        k(    5) = (  -0.4000000   0.4000000  -0.4000000), wk =   0.0640000
        k(    6) = (  -0.4000000   1.0666667  -0.4000000), wk =   0.0000000
        k(    7) = (   0.0000000   0.4000000   0.0000000), wk =   0.0160000
        k(    8) = (   0.0000000   1.0666667   0.0000000), wk =   0.0000000
        k(    9) = (  -0.2000000   0.6000000  -0.2000000), wk =   0.0640000
        k(   10) = (  -0.2000000   1.2666667  -0.2000000), wk =   0.0000000
        k(   11) = (   0.6000000  -0.2000000   0.6000000), wk =   0.0640000
        k(   12) = (   0.6000000   0.4666667   0.6000000), wk =   0.0000000
        k(   13) = (   0.4000000   0.0000000   0.4000000), wk =   0.0640000
        k(   14) = (   0.4000000   0.6666667   0.4000000), wk =   0.0000000
        k(   15) = (   0.0000000   0.8000000   0.0000000), wk =   0.0160000
        k(   16) = (   0.0000000   1.4666667   0.0000000), wk =   0.0000000
        k(   17) = (   0.8000000   0.0000000   0.8000000), wk =   0.0640000
        k(   18) = (   0.8000000   0.6666667   0.8000000), wk =   0.0000000
        k(   19) = (   0.6000000  -0.2000000   1.0000000), wk =   0.0640000
        k(   20) = (   0.6000000   0.4666667   1.0000000), wk =   0.0000000
        k(   21) = (   0.2000000  -0.2000000   0.2000000), wk =   0.0640000
        k(   22) = (   0.2000000   0.4666667   0.2000000), wk =   0.0000000
        k(   23) = (   0.4000000  -0.4000000   0.4000000), wk =   0.0640000
        k(   24) = (   0.4000000   0.2666667   0.4000000), wk =   0.0000000
        k(   25) = (  -0.4000000   0.0000000   0.0000000), wk =   0.0640000
        k(   26) = (  -0.4000000   0.6666667   0.0000000), wk =   0.0000000
        k(   27) = (   0.0000000  -0.4000000   0.0000000), wk =   0.0160000
        k(   28) = (   0.0000000   0.2666667   0.0000000), wk =   0.0000000
        k(   29) = (  -0.6000000   0.2000000  -0.2000000), wk =   0.1280000
        k(   30) = (  -0.6000000   0.8666667  -0.2000000), wk =   0.0000000
        k(   31) = (   0.2000000  -0.6000000   0.2000000), wk =   0.0640000
        k(   32) = (   0.2000000   0.0666667   0.2000000), wk =   0.0000000
        k(   33) = (   0.2000000  -0.2000000   0.6000000), wk =   0.1280000
        k(   34) = (   0.2000000   0.4666667   0.6000000), wk =   0.0000000
        k(   35) = (   0.2000000  -0.6000000   0.6000000), wk =   0.1280000
        k(   36) = (   0.2000000   0.0666667   0.6000000), wk =   0.0000000
        k(   37) = (  -0.6000000   0.2000000  -0.6000000), wk =   0.0640000
        k(   38) = (  -0.6000000   0.8666667  -0.6000000), wk =   0.0000000
        k(   39) = (  -0.6000000   0.6000000  -0.2000000), wk =   0.1280000
        k(   40) = (  -0.6000000   1.2666667  -0.2000000), wk =   0.0000000
        k(   41) = (  -0.0000000  -0.4000000   0.4000000), wk =   0.0640000
        k(   42) = (  -0.0000000   0.2666667   0.4000000), wk =   0.0000000
        k(   43) = (  -0.4000000   0.4000000   0.0000000), wk =   0.0640000
        k(   44) = (  -0.4000000   1.0666667   0.0000000), wk =   0.0000000
        k(   45) = (  -0.8000000   0.0000000   0.0000000), wk =   0.0640000
        k(   46) = (  -0.8000000   0.6666667   0.0000000), wk =   0.0000000
        k(   47) = (   0.0000000  -0.8000000   0.0000000), wk =   0.0160000
        k(   48) = (   0.0000000  -0.1333333   0.0000000), wk =   0.0000000
        k(   49) = (   0.0000000  -0.8000000   0.8000000), wk =   0.0640000
        k(   50) = (   0.0000000  -0.1333333   0.8000000), wk =   0.0000000
        k(   51) = (  -0.8000000   0.8000000   0.0000000), wk =   0.0640000
        k(   52) = (  -0.8000000   1.4666667   0.0000000), wk =   0.0000000
        k(   53) = (   0.2000000  -1.0000000   0.6000000), wk =   0.1280000
        k(   54) = (   0.2000000  -0.3333333   0.6000000), wk =   0.0000000
        k(   55) = (  -1.0000000   0.2000000  -0.6000000), wk =   0.0640000
        k(   56) = (  -1.0000000   0.8666667  -0.6000000), wk =   0.0000000
        k(   57) = (   1.0000000   0.6000000  -0.2000000), wk =   0.0640000
        k(   58) = (   1.0000000   1.2666667  -0.2000000), wk =   0.0000000
        k(   59) = (  -1.0000000  -0.6000000  -0.2000000), wk =   0.0640000
        k(   60) = (  -1.0000000   0.0666667  -0.2000000), wk =   0.0000000

     Dense  grid:    77665 G-vectors     FFT dimensions: (  60,  60,  60)

     Smooth grid:    15009 G-vectors     FFT dimensions: (  36,  36,  36)

     Estimated max dynamical RAM per process >     253.94 MB

     The potential is recalculated from file :
     ./_ph0/nacl.save/charge-density


     negative rho (up, down):  1.445E-02 0.000E+00
     Starting wfcs are    9 atomic wfcs

     Band Structure Calculation
     Davidson diagonalization with overlap

     ethr =  6.25E-11,  avg # of iterations = 11.2

     total cpu time spent up to now is       30.9 secs

     End of band structure calculation

          k = 0.0000 0.0000 0.0000 (  1837 PWs)   bands (ev):

   -48.2166 -20.1300 -20.1300 -20.1300 -11.8270   0.7629   0.7629   0.7629

          k = 0.0000 0.6667 0.0000 (  1864 PWs)   bands (ev):

   -48.2159 -20.1444 -20.1353 -20.1353 -11.5581  -0.5689   0.3263   0.3263

          k =-0.2000 0.2000-0.2000 (  1877 PWs)   bands (ev):

   -48.2163 -20.1387 -20.1307 -20.1307 -11.7259   0.0031   0.6739   0.6739

          k =-0.2000 0.8667-0.2000 (  1858 PWs)   bands (ev):

   -48.2157 -20.1463 -20.1396 -20.1355 -11.4816  -0.6772  -0.0781   0.2793

          k =-0.4000 0.4000-0.4000 (  1877 PWs)   bands (ev):

   -48.2160 -20.1525 -20.1317 -20.1317 -11.5543  -0.9271   0.5376   0.5376

          k =-0.4000 1.0667-0.4000 (  1864 PWs)   bands (ev):

   -48.2158 -20.1476 -20.1399 -20.1331 -11.4956  -0.6423  -0.1856   0.4232

          k = 0.0000 0.4000 0.0000 (  1868 PWs)   bands (ev):

   -48.2163 -20.1377 -20.1324 -20.1324 -11.6982  -0.0016   0.5516   0.5516

          k = 0.0000 1.0667 0.0000 (  1856 PWs)   bands (ev):

   -48.2157 -20.1472 -20.1370 -20.1370 -11.4814  -0.8048   0.2025   0.2025

          k =-0.2000 0.6000-0.2000 (  1875 PWs)   bands (ev):

   -48.2160 -20.1469 -20.1344 -20.1338 -11.5595  -0.6304   0.2983   0.4108

          k =-0.2000 1.2667-0.2000 (  1866 PWs)   bands (ev):

   -48.2158 -20.1472 -20.1370 -20.1349 -11.5120  -0.6891   0.0957   0.3317

          k = 0.6000-0.2000 0.6000 (  1859 PWs)   bands (ev):

   -48.2158 -20.1505 -20.1369 -20.1329 -11.5004  -0.8255   0.0566   0.4382

          k = 0.6000 0.4667 0.6000 (  1868 PWs)   bands (ev):

   -48.2159 -20.1537 -20.1323 -20.1322 -11.5299  -0.9979   0.4734   0.5008

          k = 0.4000 0.0000 0.4000 (  1873 PWs)   bands (ev):

   -48.2161 -20.1449 -20.1352 -20.1310 -11.6063  -0.4606   0.2642   0.5991

          k = 0.4000 0.6667 0.4000 (  1863 PWs)   bands (ev):

   -48.2159 -20.1529 -20.1341 -20.1326 -11.5114  -0.9610   0.3003   0.4656

          k = 0.0000 0.8000 0.0000 (  1868 PWs)   bands (ev):

   -48.2158 -20.1463 -20.1364 -20.1364 -11.5080  -0.7284   0.2456   0.2456

          k = 0.0000 1.4667 0.0000 (  1876 PWs)   bands (ev):

   -48.2161 -20.1414 -20.1339 -20.1339 -11.6250  -0.3224   0.4337   0.4337

          k = 0.8000 0.0000 0.8000 (  1864 PWs)   bands (ev):

   -48.2157 -20.1454 -20.1411 -20.1358 -11.4713  -0.6555  -0.1543   0.2611

          k = 0.8000 0.6667 0.8000 (  1881 PWs)   bands (ev):

   -48.2162 -20.1421 -20.1315 -20.1310 -11.6772  -0.2568   0.5984   0.6216

          k = 0.6000-0.2000 1.0000 (  1850 PWs)   bands (ev):

   -48.2158 -20.1458 -20.1398 -20.1360 -11.4827  -0.5880  -0.1398   0.2140

          k = 0.6000 0.4667 1.0000 (  1873 PWs)   bands (ev):

   -48.2160 -20.1466 -20.1369 -20.1319 -11.5568  -0.5848   0.1071   0.5144

          k = 0.2000-0.2000 0.2000 (  1877 PWs)   bands (ev):

   -48.2163 -20.1387 -20.1307 -20.1307 -11.7259   0.0031   0.6739   0.6739

          k = 0.2000 0.4667 0.2000 (  1872 PWs)   bands (ev):

   -48.2161 -20.1451 -20.1326 -20.1323 -11.6178  -0.4821   0.4859   0.5049

          k = 0.4000-0.4000 0.4000 (  1877 PWs)   bands (ev):

   -48.2160 -20.1525 -20.1317 -20.1317 -11.5543  -0.9271   0.5376   0.5376

          k = 0.4000 0.2667 0.4000 (  1873 PWs)   bands (ev):

   -48.2160 -20.1498 -20.1325 -20.1313 -11.5797  -0.7660   0.4834   0.5697

          k =-0.4000 0.0000 0.0000 (  1868 PWs)   bands (ev):

   -48.2163 -20.1377 -20.1324 -20.1324 -11.6982  -0.0016   0.5516   0.5516

          k =-0.4000 0.6667 0.0000 (  1861 PWs)   bands (ev):

   -48.2158 -20.1469 -20.1385 -20.1337 -11.5135  -0.6251  -0.0344   0.3767

          k = 0.0000-0.4000 0.0000 (  1868 PWs)   bands (ev):

   -48.2163 -20.1377 -20.1324 -20.1324 -11.6982  -0.0016   0.5516   0.5516

          k = 0.0000 0.2667 0.0000 (  1872 PWs)   bands (ev):

   -48.2164 -20.1339 -20.1312 -20.1312 -11.7644   0.3496   0.6593   0.6593

          k =-0.6000 0.2000-0.2000 (  1875 PWs)   bands (ev):

   -48.2160 -20.1469 -20.1344 -20.1338 -11.5595  -0.6304   0.2983   0.4108

          k =-0.6000 0.8667-0.2000 (  1860 PWs)   bands (ev):

   -48.2158 -20.1470 -20.1392 -20.1353 -11.4841  -0.6454  -0.1125   0.2648

          k = 0.2000-0.6000 0.2000 (  1875 PWs)   bands (ev):

   -48.2160 -20.1469 -20.1344 -20.1338 -11.5595  -0.6304   0.2983   0.4108

          k = 0.2000 0.0667 0.2000 (  1879 PWs)   bands (ev):

   -48.2164 -20.1360 -20.1312 -20.1302 -11.7534   0.2132   0.6470   0.7163

          k = 0.2000-0.2000 0.6000 (  1875 PWs)   bands (ev):

   -48.2160 -20.1469 -20.1344 -20.1338 -11.5595  -0.6304   0.2983   0.4108

          k = 0.2000 0.4667 0.6000 (  1867 PWs)   bands (ev):

   -48.2159 -20.1505 -20.1358 -20.1326 -11.5179  -0.8246   0.1636   0.4632

          k = 0.2000-0.6000 0.6000 (  1859 PWs)   bands (ev):

   -48.2158 -20.1505 -20.1369 -20.1329 -11.5004  -0.8255   0.0566   0.4382

          k = 0.2000 0.0667 0.6000 (  1870 PWs)   bands (ev):

   -48.2160 -20.1450 -20.1353 -20.1337 -11.5716  -0.5343   0.2827   0.4067

          k =-0.6000 0.2000-0.6000 (  1859 PWs)   bands (ev):

   -48.2158 -20.1505 -20.1369 -20.1329 -11.5004  -0.8255   0.0566   0.4382

          k =-0.6000 0.8667-0.6000 (  1873 PWs)   bands (ev):

   -48.2161 -20.1466 -20.1341 -20.1311 -11.5991  -0.5680   0.3503   0.5914

          k =-0.6000 0.6000-0.2000 (  1859 PWs)   bands (ev):

   -48.2158 -20.1505 -20.1369 -20.1329 -11.5004  -0.8255   0.0566   0.4382

          k =-0.6000 1.2667-0.2000 (  1852 PWs)   bands (ev):

   -48.2158 -20.1491 -20.1381 -20.1340 -11.4893  -0.7528  -0.0418   0.3632

          k =-0.0000-0.4000 0.4000 (  1873 PWs)   bands (ev):

   -48.2161 -20.1449 -20.1352 -20.1310 -11.6063  -0.4606   0.2642   0.5991

          k =-0.0000 0.2667 0.4000 (  1882 PWs)   bands (ev):

   -48.2162 -20.1421 -20.1338 -20.1309 -11.6529  -0.2768   0.4097   0.6190

          k =-0.4000 0.4000 0.0000 (  1873 PWs)   bands (ev):

   -48.2161 -20.1449 -20.1352 -20.1310 -11.6063  -0.4606   0.2642   0.5991

          k =-0.4000 1.0667 0.0000 (  1862 PWs)   bands (ev):

   -48.2157 -20.1441 -20.1405 -20.1381 -11.4669  -0.5230  -0.1956   0.0849

          k =-0.8000 0.0000 0.0000 (  1868 PWs)   bands (ev):

   -48.2158 -20.1463 -20.1364 -20.1364 -11.5080  -0.7284   0.2456   0.2456

          k =-0.8000 0.6667 0.0000 (  1864 PWs)   bands (ev):

   -48.2157 -20.1439 -20.1432 -20.1354 -11.4707  -0.5233  -0.3327   0.2707

          k = 0.0000-0.8000 0.0000 (  1868 PWs)   bands (ev):

   -48.2158 -20.1463 -20.1364 -20.1364 -11.5080  -0.7284   0.2456   0.2456

          k = 0.0000-0.1333 0.0000 (  1868 PWs)   bands (ev):

   -48.2165 -20.1311 -20.1303 -20.1303 -11.8105   0.6437   0.7353   0.7353

          k = 0.0000-0.8000 0.8000 (  1864 PWs)   bands (ev):

   -48.2157 -20.1454 -20.1411 -20.1358 -11.4713  -0.6555  -0.1543   0.2611

          k = 0.0000-0.1333 0.8000 (  1862 PWs)   bands (ev):

   -48.2158 -20.1463 -20.1368 -20.1364 -11.5040  -0.7118   0.1936   0.2339

          k =-0.8000 0.8000 0.0000 (  1864 PWs)   bands (ev):

   -48.2157 -20.1454 -20.1411 -20.1358 -11.4713  -0.6555  -0.1543   0.2611

          k =-0.8000 1.4667 0.0000 (  1861 PWs)   bands (ev):

   -48.2157 -20.1449 -20.1419 -20.1356 -11.4742  -0.4796  -0.3433   0.2413

          k = 0.2000-1.0000 0.6000 (  1850 PWs)   bands (ev):

   -48.2158 -20.1458 -20.1398 -20.1360 -11.4827  -0.5880  -0.1398   0.2140

          k = 0.2000-0.3333 0.6000 (  1869 PWs)   bands (ev):

   -48.2159 -20.1492 -20.1349 -20.1330 -11.5395  -0.7488   0.2544   0.4436

          k =-1.0000 0.2000-0.6000 (  1850 PWs)   bands (ev):

   -48.2158 -20.1458 -20.1398 -20.1360 -11.4827  -0.5880  -0.1398   0.2140

          k =-1.0000 0.8667-0.6000 (  1871 PWs)   bands (ev):

   -48.2162 -20.1392 -20.1328 -20.1317 -11.6861  -0.0903   0.5137   0.5839

          k = 1.0000 0.6000-0.2000 (  1850 PWs)   bands (ev):

   -48.2158 -20.1458 -20.1398 -20.1360 -11.4827  -0.5880  -0.1398   0.2140

          k = 1.0000 1.2667-0.2000 (  1860 PWs)   bands (ev):

   -48.2158 -20.1462 -20.1380 -20.1363 -11.4941  -0.6641   0.0530   0.2141

          k =-1.0000-0.6000-0.2000 (  1850 PWs)   bands (ev):

   -48.2158 -20.1458 -20.1398 -20.1360 -11.4827  -0.5880  -0.1398   0.2140

          k =-1.0000 0.0667-0.2000 (  1859 PWs)   bands (ev):

   -48.2157 -20.1463 -20.1388 -20.1369 -11.4728  -0.7250   0.0247   0.1859

     highest occupied level (ev):     0.7629

     Writing config to output data dir ./_ph0/nacl.save/

     default                                                                    

     bravais-lattice index     =            2
     lattice parameter (alat)  =      10.7725  a.u.
     unit-cell volume          =     312.5286 (a.u.)^3
     number of atoms/cell      =            2
     number of atomic types    =            2
     kinetic-energy cut-off    =      50.0000  Ry
     charge density cut-off    =     600.0000  Ry
     convergence threshold     =      1.0E-16
     beta                      =       0.7000
     number of iterations used =            4
     Exchange-correlation= PBE
                           (   1   4   3   4   0   0   0)


     celldm(1)=   10.77250  celldm(2)=    0.00000  celldm(3)=    0.00000
     celldm(4)=    0.00000  celldm(5)=    0.00000  celldm(6)=    0.00000

     crystal axes: (cart. coord. in units of alat)
               a(1) = ( -0.5000  0.0000  0.5000 )  
               a(2) = (  0.0000  0.5000  0.5000 )  
               a(3) = ( -0.5000  0.5000  0.0000 )  

     reciprocal axes: (cart. coord. in units 2 pi/alat)
               b(1) = ( -1.0000 -1.0000  1.0000 )  
               b(2) = (  1.0000  1.0000  1.0000 )  
               b(3) = ( -1.0000  1.0000 -1.0000 )  


     Atoms inside the unit cell: 

     Cartesian axes

     site n.  atom      mass           positions (alat units)
        1     Na  22.9898   tau(    1) = (    0.00000    0.00000    0.00000  )
        2     Cl  35.4530   tau(    2) = (   -0.50000    0.50000    0.50000  )

     Computing dynamical matrix for 
                    q = (   0.0000000   0.6666667   0.0000000 )

      8 Sym.Ops. (no q -> -q+G )


     G cutoff = 1763.6998  (  77665 G-vectors)     FFT grid: ( 60, 60, 60)
     G cutoff =  587.8999  (  15009 G-vectors)  smooth grid: ( 36, 36, 36)
     number of k points=    60

     PseudoPot. # 1 for Na read from file:
     /home/user/pseudo_dir/na_pbe_v1.5.uspp.F.UPF
     MD5 check sum: 44600605ef58000f06b90626533354dc
     Pseudo is Ultrasoft, Zval =  9.0
     Generated by new atomic code, or converted to UPF format
     Using radial grid of  819 points,  5 beta functions with: 
                l(1) =   0
                l(2) =   0
                l(3) =   1
                l(4) =   1
                l(5) =   2
     Q(r) pseudized with  8 coefficients,  rinner =    1.250   1.250   1.250
                                                       1.250   1.250

     PseudoPot. # 2 for Cl read from file:
     /home/user/pseudo_dir/cl_pbe_v1.4.uspp.F.UPF
     MD5 check sum: fc6f6913ecf08c9257cb748ef0700058
     Pseudo is Ultrasoft + core correction, Zval =  7.0
     Generated by new atomic code, or converted to UPF format
     Using radial grid of  909 points,  6 beta functions with: 
                l(1) =   0
                l(2) =   0
                l(3) =   1
                l(4) =   1
                l(5) =   2
                l(6) =   2
     Q(r) pseudized with  8 coefficients,  rinner =    1.300   1.300   1.300
                                                       1.300   1.300

     Mode symmetry, C_4v (4mm)  point group:


     Atomic displacements:
     There are    4 irreducible representations

     Representation     1      1 modes -  To be done

     Representation     2      1 modes -  To be done

     Representation     3      2 modes -  To be done

     Representation     4      2 modes -  Not done in this run

     Compute atoms:     1,    2,



     Alpha used in Ewald sum =   2.8000

     negative rho (up, down):  1.445E-02 0.000E+00
     PHONON       :  15m31.82s CPU  16m10.11s WALL



     Representation #   1 mode #   1

     Self-consistent Calculation

      iter #   1 total cpu time :   977.2 secs   av.it.:   6.7
      thresh= 1.000E-02 alpha_mix =  0.700 |ddv_scf|^2 =  1.773E-05

      iter #   2 total cpu time :   986.5 secs   av.it.:  11.0
      thresh= 4.210E-04 alpha_mix =  0.700 |ddv_scf|^2 =  1.422E-05

      iter #   3 total cpu time :   995.1 secs   av.it.:   9.7
      thresh= 3.772E-04 alpha_mix =  0.700 |ddv_scf|^2 =  4.351E-09

      iter #   4 total cpu time :  1004.4 secs   av.it.:  12.5
      thresh= 6.596E-06 alpha_mix =  0.700 |ddv_scf|^2 =  1.275E-09

      iter #   5 total cpu time :  1012.6 secs   av.it.:  11.2
      thresh= 3.571E-06 alpha_mix =  0.700 |ddv_scf|^2 =  4.794E-11

      iter #   6 total cpu time :  1020.9 secs   av.it.:  11.7
      thresh= 6.924E-07 alpha_mix =  0.700 |ddv_scf|^2 =  7.536E-13

      iter #   7 total cpu time :  1029.2 secs   av.it.:  11.6
      thresh= 8.681E-08 alpha_mix =  0.700 |ddv_scf|^2 =  1.993E-14

      iter #   8 total cpu time :  1038.9 secs   av.it.:  13.1
      thresh= 1.412E-08 alpha_mix =  0.700 |ddv_scf|^2 =  1.919E-15

      iter #   9 total cpu time :  1047.9 secs   av.it.:  12.4
      thresh= 4.381E-09 alpha_mix =  0.700 |ddv_scf|^2 =  3.716E-17

     End of self-consistent calculation

     Convergence has been achieved 


     Representation #   2 mode #   2

     Self-consistent Calculation

      iter #   1 total cpu time :  1054.7 secs   av.it.:   7.1
      thresh= 1.000E-02 alpha_mix =  0.700 |ddv_scf|^2 =  2.454E-05

      iter #   2 total cpu time :  1062.8 secs   av.it.:  11.0
      thresh= 4.954E-04 alpha_mix =  0.700 |ddv_scf|^2 =  1.296E-05

      iter #   3 total cpu time :  1070.6 secs   av.it.:  10.1
      thresh= 3.600E-04 alpha_mix =  0.700 |ddv_scf|^2 =  1.087E-07

      iter #   4 total cpu time :  1079.3 secs   av.it.:  11.5
      thresh= 3.297E-05 alpha_mix =  0.700 |ddv_scf|^2 =  5.110E-09

      iter #   5 total cpu time :  1087.7 secs   av.it.:  11.1
      thresh= 7.149E-06 alpha_mix =  0.700 |ddv_scf|^2 =  1.910E-10

      iter #   6 total cpu time :  1096.4 secs   av.it.:  11.9
      thresh= 1.382E-06 alpha_mix =  0.700 |ddv_scf|^2 =  5.185E-11

      iter #   7 total cpu time :  1104.1 secs   av.it.:  10.2
      thresh= 7.200E-07 alpha_mix =  0.700 |ddv_scf|^2 =  1.768E-13

      iter #   8 total cpu time :  1112.8 secs   av.it.:  12.3
      thresh= 4.205E-08 alpha_mix =  0.700 |ddv_scf|^2 =  3.456E-15

      iter #   9 total cpu time :  1121.8 secs   av.it.:  12.3
      thresh= 5.878E-09 alpha_mix =  0.700 |ddv_scf|^2 =  3.120E-16

      iter #  10 total cpu time :  1131.1 secs   av.it.:  12.1
      thresh= 1.766E-09 alpha_mix =  0.700 |ddv_scf|^2 =  6.574E-18

     End of self-consistent calculation

     Convergence has been achieved 


     Representation #   3 modes #   3   4

     Self-consistent Calculation

      iter #   1 total cpu time :  1143.5 secs   av.it.:   6.5
      thresh= 1.000E-02 alpha_mix =  0.700 |ddv_scf|^2 =  3.368E-07

      iter #   2 total cpu time :  1163.4 secs   av.it.:  13.3
      thresh= 5.803E-05 alpha_mix =  0.700 |ddv_scf|^2 =  4.926E-08

      iter #   3 total cpu time :  1181.1 secs   av.it.:  12.2
      thresh= 2.219E-05 alpha_mix =  0.700 |ddv_scf|^2 =  2.936E-10

      iter #   4 total cpu time :  1202.5 secs   av.it.:  13.4
      thresh= 1.714E-06 alpha_mix =  0.700 |ddv_scf|^2 =  4.122E-12

      iter #   5 total cpu time :  1223.0 secs   av.it.:  13.3
      thresh= 2.030E-07 alpha_mix =  0.700 |ddv_scf|^2 =  1.833E-14

      iter #   6 total cpu time :  1241.6 secs   av.it.:  13.1
      thresh= 1.354E-08 alpha_mix =  0.700 |ddv_scf|^2 =  2.587E-16

      iter #   7 total cpu time :  1260.5 secs   av.it.:  12.8
      thresh= 1.609E-09 alpha_mix =  0.700 |ddv_scf|^2 =  6.924E-18

     End of self-consistent calculation

     Convergence has been achieved 

     Not diagonalizing because representation    4 is not done

     init_run     :      3.11s CPU      3.78s WALL (       2 calls)
     electrons    :     25.82s CPU     27.11s WALL (       2 calls)

     Called by init_run:
     wfcinit      :      0.00s CPU      0.00s WALL (       2 calls)
     potinit      :      0.41s CPU      0.57s WALL (       2 calls)
     hinit0       :      1.85s CPU      1.90s WALL (       2 calls)

     Called by electrons:
     c_bands      :     25.82s CPU     27.03s WALL (       2 calls)
     v_of_rho     :      0.53s CPU      0.72s WALL (       3 calls)
     newd         :      1.09s CPU      1.67s WALL (       3 calls)

     Called by c_bands:
     init_us_2    :      2.78s CPU      3.08s WALL (    3215 calls)
     init_us_2:cp :      2.76s CPU      3.07s WALL (    3215 calls)
     cegterg      :     23.04s CPU     24.07s WALL (     130 calls)

     Called by *egterg:
     cdiaghg      :      0.33s CPU      0.34s WALL (    1594 calls)
     h_psi        :    650.34s CPU    669.04s WALL (   56799 calls)
     s_psi        :     67.37s CPU     69.40s WALL (  115244 calls)
     g_psi        :      0.08s CPU      0.09s WALL (    1464 calls)

     Called by h_psi:
     h_psi:calbec :     43.61s CPU     44.76s WALL (   56799 calls)
     vloc_psi     :    570.36s CPU    586.95s WALL (   56799 calls)
     add_vuspsi   :     33.20s CPU     34.20s WALL (   56799 calls)

     General routines
     calbec       :     93.89s CPU     96.89s WALL (  124514 calls)
     fft          :     19.44s CPU     20.03s WALL (    2779 calls)
     ffts         :      0.98s CPU      1.08s WALL (     828 calls)
     fftw         :    593.82s CPU    614.39s WALL (  796484 calls)
     interpolate  :      3.02s CPU      3.22s WALL (     306 calls)
     davcio       :      1.96s CPU      4.38s WALL (   17600 calls)

     Parallel routines

     PHONON       :  20m16.27s CPU  21m 1.16s WALL

     INITIALIZATION: 
     phq_setup    :      1.31s CPU      1.66s WALL (       3 calls)
     phq_init     :     49.24s CPU     52.41s WALL (       3 calls)

     phq_init     :     49.24s CPU     52.41s WALL (       3 calls)
     set_drhoc    :      6.61s CPU      6.95s WALL (       9 calls)
     init_vloc    :      0.03s CPU      0.03s WALL (       3 calls)
     init_us_1    :      2.43s CPU      2.48s WALL (       3 calls)
     init_us_2    :      2.78s CPU      3.08s WALL (    3215 calls)
     newd         :      1.09s CPU      1.67s WALL (       3 calls)
     dvanqq       :     22.50s CPU     23.51s WALL (       3 calls)
     drho         :     14.29s CPU     15.85s WALL (       3 calls)

     DYNAMICAL MATRIX:
     dynmat0      :      5.74s CPU      6.16s WALL (       3 calls)
     phqscf       :   1041.47s CPU   1075.39s WALL (       3 calls)
     dynmatrix    :      0.00s CPU      0.05s WALL (       3 calls)

     phqscf       :   1041.47s CPU   1075.39s WALL (       3 calls)
     solve_linter :   1036.51s CPU   1069.97s WALL (       9 calls)
     drhodv       :      2.05s CPU      2.24s WALL (       9 calls)

     dynmat0      :      5.74s CPU      6.16s WALL (       3 calls)
     dynmat_us    :      0.71s CPU      0.75s WALL (       3 calls)
     d2ionq       :      0.12s CPU      0.17s WALL (       3 calls)
     dynmatcc     :      4.91s CPU      5.24s WALL (       3 calls)

     dynmat_us    :      0.71s CPU      0.75s WALL (       3 calls)
     addusdynmat  :      0.00s CPU      0.00s WALL (       3 calls)

     phqscf       :   1041.47s CPU   1075.39s WALL (       3 calls)
     solve_linter :   1036.51s CPU   1069.97s WALL (       9 calls)

     solve_linter :   1036.51s CPU   1069.97s WALL (       9 calls)
     dvqpsi_us    :      7.70s CPU      8.34s WALL (     450 calls)
     sth_kernel   :    879.21s CPU    906.19s WALL (      80 calls)
     apply_dpot_b :     39.55s CPU     41.75s WALL (    2890 calls)
     ortho        :      7.30s CPU      7.62s WALL (    3340 calls)
     cgsolve      :    784.97s CPU    807.01s WALL (    3340 calls)
     incdrhoscf   :     55.29s CPU     57.42s WALL (    3340 calls)
     addusddens   :     71.74s CPU     74.17s WALL (      84 calls)
     dv_of_drho   :     17.94s CPU     19.23s WALL (     143 calls)
     mix_pot      :      2.05s CPU      4.48s WALL (      80 calls)
     psymdvscf    :     27.73s CPU     28.05s WALL (      74 calls)
     newdq        :     93.25s CPU     95.30s WALL (      80 calls)
     adddvscf     :      2.71s CPU      2.86s WALL (    2890 calls)
     drhodvus     :      0.10s CPU      0.22s WALL (       9 calls)

     dvqpsi_us    :      7.70s CPU      8.34s WALL (     450 calls)
     dvqpsi_us_on :      1.13s CPU      1.21s WALL (     450 calls)

     cgsolve      :    784.97s CPU    807.01s WALL (    3340 calls)
     ch_psi       :    766.37s CPU    787.80s WALL (   55075 calls)

     ch_psi       :    766.37s CPU    787.80s WALL (   55075 calls)
     h_psi        :    650.34s CPU    669.04s WALL (   56799 calls)
     last         :     98.75s CPU    101.53s WALL (   55075 calls)

     h_psi        :    650.34s CPU    669.04s WALL (   56799 calls)
     add_vuspsi   :     33.20s CPU     34.20s WALL (   56799 calls)

     incdrhoscf   :     55.29s CPU     57.42s WALL (    3340 calls)
     addusdbec    :      3.86s CPU      4.02s WALL (    3790 calls)

     drhodvus     :      0.10s CPU      0.22s WALL (       9 calls)

      General routines
     calbec       :     93.89s CPU     96.89s WALL (  124514 calls)
     fft          :     19.44s CPU     20.03s WALL (    2779 calls)
     ffts         :      0.98s CPU      1.08s WALL (     828 calls)
     fftw         :    593.82s CPU    614.39s WALL (  796484 calls)
     davcio       :      1.96s CPU      4.38s WALL (   17600 calls)
     write_rec    :      0.08s CPU      1.13s WALL (      89 calls)


     PHONON       :  20m16.27s CPU  21m 1.16s WALL


   This run was terminated on:   0:43:59  10Feb2022            

=------------------------------------------------------------------------------=
   JOB DONE.
=------------------------------------------------------------------------------=
