
     Program PWSCF v.7.0 starts on  9Feb2022 at 23:39:30 

     This program is part of the open-source Quantum ESPRESSO suite
     for quantum simulation of materials; please cite
         "P. Giannozzi et al., J. Phys.:Condens. Matter 21 395502 (2009);
         "P. Giannozzi et al., J. Phys.:Condens. Matter 29 465901 (2017);
         "P. Giannozzi et al., J. Chem. Phys. 152 154105 (2020);
          URL http://www.quantum-espresso.org", 
     in publications or presentations arising from this work. More details at
     http://www.quantum-espresso.org/quote

     Parallel version (MPI), running on     1 processors

     MPI processes distributed on     1 nodes
     566 MiB available memory on the printing compute node when the environment starts

     Reading input from 01-feo-scf.in

     Current dimensions of program PWSCF are:
     Max number of different atomic species (ntypx) = 10
     Max number of k-points (npk) =  40000
     Max angular momentum in pseudopotentials (lmaxx) =  4
     Message from routine volume:
     axis vectors are left-handed
     file Fe.pbesol-spn-kjpaw_psl.0.2.1.UPF: wavefunction(s)  3D renormalized
     file Fe.pbesol-spn-kjpaw_psl.0.2.1.UPF: wavefunction(s)  3D renormalized
     file O.pbesol-n-kjpaw_psl.0.1.UPF: wavefunction(s)  2P renormalized
     Message from routine setup:
     using ibrav=0 with symmetry is DISCOURAGED, use correct ibrav instead

     Subspace diagonalization in iterative solution of the eigenvalue problem:
     a serial algorithm will be used


     G-vector sticks info
     --------------------
     sticks:   dense  smooth     PW     G-vecs:    dense   smooth      PW
     Sum        1061     539    171                17255     6111    1141

     Using Slab Decomposition



     bravais-lattice index     =            0
     lattice parameter (alat)  =       8.1900  a.u.
     unit-cell volume          =     274.6766 (a.u.)^3
     number of atoms/cell      =            4
     number of atomic types    =            3
     number of electrons       =        44.00
     number of Kohn-Sham states=           26
     kinetic-energy cutoff     =      30.0000  Ry
     charge density cutoff     =     240.0000  Ry
     scf convergence threshold =      1.0E-09
     mixing beta               =       0.3000
     number of iterations used =            8  plain     mixing
     Exchange-correlation= SLA  PW   PSX  PSC
                           (   1   4  10   8   0   0   0)

     celldm(1)=   8.190000  celldm(2)=   0.000000  celldm(3)=   0.000000
     celldm(4)=   0.000000  celldm(5)=   0.000000  celldm(6)=   0.000000

     crystal axes: (cart. coord. in units of alat)
               a(1) = (   0.500000   0.500000   1.000000 )  
               a(2) = (   0.500000   1.000000   0.500000 )  
               a(3) = (   1.000000   0.500000   0.500000 )  

     reciprocal axes: (cart. coord. in units 2 pi/alat)
               b(1) = ( -0.500000 -0.500000  1.500000 )  
               b(2) = ( -0.500000  1.500000 -0.500000 )  
               b(3) = (  1.500000 -0.500000 -0.500000 )  


     PseudoPot. # 1 for Fe read from file:
     /home/user/pseudo_dir/Fe.pbesol-spn-kjpaw_psl.0.2.1.UPF
     MD5 check sum: 7febcda02fc281f884e3aa15a414695d
     Pseudo is Projector augmented-wave + core cor, Zval = 16.0
     Generated using "atomic" code by A. Dal Corso  v.6.0 svn rev. 13079
     Shape of augmentation charge: PSQ
     Using radial grid of 1191 points,  6 beta functions with: 
                l(1) =   0
                l(2) =   0
                l(3) =   1
                l(4) =   1
                l(5) =   2
                l(6) =   2
     Q(r) pseudized with 0 coefficients 


     PseudoPot. # 2 for Fe read from file:
     /home/user/pseudo_dir/Fe.pbesol-spn-kjpaw_psl.0.2.1.UPF
     MD5 check sum: 7febcda02fc281f884e3aa15a414695d
     Pseudo is Projector augmented-wave + core cor, Zval = 16.0
     Generated using "atomic" code by A. Dal Corso  v.6.0 svn rev. 13079
     Shape of augmentation charge: PSQ
     Using radial grid of 1191 points,  6 beta functions with: 
                l(1) =   0
                l(2) =   0
                l(3) =   1
                l(4) =   1
                l(5) =   2
                l(6) =   2
     Q(r) pseudized with 0 coefficients 


     PseudoPot. # 3 for O  read from file:
     /home/user/pseudo_dir/O.pbesol-n-kjpaw_psl.0.1.UPF
     MD5 check sum: 126339daddaa87477ab44acfa0b5aa00
     Pseudo is Projector augmented-wave + core cor, Zval =  6.0
     Generated using "atomic" code by A. Dal Corso  v.6.0 svn rev. 13079
     Shape of augmentation charge: BESSEL
     Using radial grid of 1095 points,  4 beta functions with: 
                l(1) =   0
                l(2) =   0
                l(3) =   1
                l(4) =   1
     Q(r) pseudized with 0 coefficients 


     atomic species   valence    mass     pseudopotential
        Fe1           16.00    55.84500     Fe( 1.00)
        Fe2           16.00    55.84500     Fe( 1.00)
        O              6.00    16.00000     O ( 1.00)

     Starting magnetic structure 
     atomic species   magnetization
        Fe1          0.500
        Fe2         -0.500
        O            0.000

     12 Sym. Ops., with inversion, found


                                    s                        frac. trans.

      isym =  1     identity                                     

 cryst.   s( 1) = (     1          0          0      )
                  (     0          1          0      )
                  (     0          0          1      )

 cart.    s( 1) = (  1.0000000  0.0000000  0.0000000 )
                  (  0.0000000  1.0000000  0.0000000 )
                  (  0.0000000  0.0000000  1.0000000 )


      isym =  2     180 deg rotation - cart. axis [1,-1,0]       

 cryst.   s( 2) = (    -1          0          0      )
                  (     0          0         -1      )
                  (     0         -1          0      )

 cart.    s( 2) = (  0.0000000 -1.0000000  0.0000000 )
                  ( -1.0000000  0.0000000  0.0000000 )
                  (  0.0000000  0.0000000 -1.0000000 )


      isym =  3     180 deg rotation - cart. axis [-1,0,1]       

 cryst.   s( 3) = (     0          0         -1      )
                  (     0         -1          0      )
                  (    -1          0          0      )

 cart.    s( 3) = (  0.0000000  0.0000000 -1.0000000 )
                  (  0.0000000 -1.0000000  0.0000000 )
                  ( -1.0000000  0.0000000  0.0000000 )


      isym =  4     180 deg rotation - cart. axis [0,1,-1]       

 cryst.   s( 4) = (     0         -1          0      )
                  (    -1          0          0      )
                  (     0          0         -1      )

 cart.    s( 4) = ( -1.0000000  0.0000000  0.0000000 )
                  (  0.0000000  0.0000000 -1.0000000 )
                  (  0.0000000 -1.0000000  0.0000000 )


      isym =  5     120 deg rotation - cart. axis [-1,-1,-1]     

 cryst.   s( 5) = (     0          1          0      )
                  (     0          0          1      )
                  (     1          0          0      )

 cart.    s( 5) = (  0.0000000  1.0000000  0.0000000 )
                  (  0.0000000  0.0000000  1.0000000 )
                  (  1.0000000  0.0000000  0.0000000 )


      isym =  6     120 deg rotation - cart. axis [1,1,1]        

 cryst.   s( 6) = (     0          0          1      )
                  (     1          0          0      )
                  (     0          1          0      )

 cart.    s( 6) = (  0.0000000  0.0000000  1.0000000 )
                  (  1.0000000  0.0000000  0.0000000 )
                  (  0.0000000  1.0000000  0.0000000 )


      isym =  7     inversion                                    

 cryst.   s( 7) = (    -1          0          0      )
                  (     0         -1          0      )
                  (     0          0         -1      )

 cart.    s( 7) = ( -1.0000000  0.0000000  0.0000000 )
                  (  0.0000000 -1.0000000  0.0000000 )
                  (  0.0000000  0.0000000 -1.0000000 )


      isym =  8     inv. 180 deg rotation - cart. axis [1,-1,0]  

 cryst.   s( 8) = (     1          0          0      )
                  (     0          0          1      )
                  (     0          1          0      )

 cart.    s( 8) = (  0.0000000  1.0000000  0.0000000 )
                  (  1.0000000  0.0000000  0.0000000 )
                  (  0.0000000  0.0000000  1.0000000 )


      isym =  9     inv. 180 deg rotation - cart. axis [-1,0,1]  

 cryst.   s( 9) = (     0          0          1      )
                  (     0          1          0      )
                  (     1          0          0      )

 cart.    s( 9) = (  0.0000000  0.0000000  1.0000000 )
                  (  0.0000000  1.0000000  0.0000000 )
                  (  1.0000000  0.0000000  0.0000000 )


      isym = 10     inv. 180 deg rotation - cart. axis [0,1,-1]  

 cryst.   s(10) = (     0          1          0      )
                  (     1          0          0      )
                  (     0          0          1      )

 cart.    s(10) = (  1.0000000  0.0000000  0.0000000 )
                  (  0.0000000  0.0000000  1.0000000 )
                  (  0.0000000  1.0000000  0.0000000 )


      isym = 11     inv. 120 deg rotation - cart. axis [-1,-1,-1]

 cryst.   s(11) = (     0         -1          0      )
                  (     0          0         -1      )
                  (    -1          0          0      )

 cart.    s(11) = (  0.0000000 -1.0000000  0.0000000 )
                  (  0.0000000  0.0000000 -1.0000000 )
                  ( -1.0000000  0.0000000  0.0000000 )


      isym = 12     inv. 120 deg rotation - cart. axis [1,1,1]   

 cryst.   s(12) = (     0          0         -1      )
                  (    -1          0          0      )
                  (     0         -1          0      )

 cart.    s(12) = (  0.0000000  0.0000000 -1.0000000 )
                  ( -1.0000000  0.0000000  0.0000000 )
                  (  0.0000000 -1.0000000  0.0000000 )


   Cartesian axes

     site n.     atom                  positions (alat units)
         1           Fe1 tau(   1) = (   0.0000000   0.0000000   0.0000000  )
         2           Fe2 tau(   2) = (   1.0000000   1.0000000   1.0000000  )
         3           O   tau(   3) = (   0.5000000   0.5000000   0.5000000  )
         4           O   tau(   4) = (   1.5000000   1.5000000   1.5000000  )

   Crystallographic axes

     site n.     atom                  positions (cryst. coord.)
         1           Fe1 tau(   1) = (  0.0000000  0.0000000  0.0000000  )
         2           Fe2 tau(   2) = (  0.5000000  0.5000000  0.5000000  )
         3           O   tau(   3) = (  0.2500000  0.2500000  0.2500000  )
         4           O   tau(   4) = (  0.7500000  0.7500000  0.7500000  )

     number of k points=     6  Marzari-Vanderbilt smearing, width (Ry)=  0.0200
                       cart. coord. in units 2pi/alat
        k(    1) = (   0.0000000   0.0000000   0.0000000), wk =   0.0370370
        k(    2) = (   0.5000000  -0.1666667  -0.1666667), wk =   0.2222222
        k(    3) = (   0.3333333   0.3333333  -0.3333333), wk =   0.2222222
        k(    4) = (  -0.6666667   0.6666667   0.0000000), wk =   0.2222222
        k(    5) = (   0.1666667   0.1666667   0.1666667), wk =   0.0740741
        k(    6) = (  -0.8333333   0.5000000   0.5000000), wk =   0.2222222

                       cryst. coord.
        k(    1) = (   0.0000000   0.0000000   0.0000000), wk =   0.0370370
        k(    2) = (   0.0000000   0.0000000   0.3333333), wk =   0.2222222
        k(    3) = (   0.0000000   0.3333333   0.3333333), wk =   0.2222222
        k(    4) = (   0.0000000   0.3333333  -0.3333333), wk =   0.2222222
        k(    5) = (   0.3333333   0.3333333   0.3333333), wk =   0.0740741
        k(    6) = (   0.3333333   0.3333333  -0.3333333), wk =   0.2222222

     Dense  grid:    17255 G-vectors     FFT dimensions: (  50,  50,  50)

     Smooth grid:     6111 G-vectors     FFT dimensions: (  36,  36,  36)

     Dynamical RAM for                 wfc:       0.30 MB

     Dynamical RAM for     wfc (w. buffer):       3.93 MB

     Dynamical RAM for           str. fact:       0.79 MB

     Dynamical RAM for           local pot:       0.00 MB

     Dynamical RAM for          nlocal pot:       0.60 MB

     Dynamical RAM for                qrad:       3.73 MB

     Dynamical RAM for          rho,v,vnew:       7.30 MB

     Dynamical RAM for               rhoin:       2.43 MB

     Dynamical RAM for            rho*nmix:       8.43 MB

     Dynamical RAM for           G-vectors:       1.03 MB

     Dynamical RAM for          h,s,v(r/c):       0.12 MB

     Dynamical RAM for          <psi|beta>:       0.02 MB

     Dynamical RAM for                 psi:       0.60 MB

     Dynamical RAM for                hpsi:       0.60 MB

     Dynamical RAM for                spsi:       0.60 MB

     Dynamical RAM for      wfcinit/wfcrot:       0.82 MB

     Dynamical RAM for           addusdens:      49.76 MB

     Estimated static dynamical RAM per process >      26.60 MB

     Estimated max dynamical RAM per process >      84.79 MB

     Check: negative core charge=   -0.000246
     Generating pointlists ...
     new r_m :   0.2063 (alat units)  1.6892 (a.u.) for type    1
     new r_m :   0.2063 (alat units)  1.6892 (a.u.) for type    2
     new r_m :   0.2063 (alat units)  1.6892 (a.u.) for type    3

     Initial potential from superposition of free atoms

     starting charge      43.9992, renormalised to      44.0000
     Starting wfcs are   34 randomized atomic wfcs
     Checking if some PAW data can be deallocated... 

     total cpu time spent up to now is        4.1 secs

     Self-consistent Calculation

     iteration #  1     ecut=    30.00 Ry     beta= 0.30
     Davidson diagonalization with overlap

---- Real-time Memory Report at c_bands before calling an iterative solver
            98 MiB given to the printing process from OS
             0 MiB allocation reported by mallinfo(arena+hblkhd)
           527 MiB available memory on the node where the printing process lives
------------------
     ethr =  1.00E-02,  avg # of iterations =  2.0

     negative rho (up, down):  6.119E-05 6.128E-05

     total cpu time spent up to now is        7.6 secs

     total energy              =    -734.88458870 Ry
     estimated scf accuracy    <       1.55782755 Ry

     total magnetization       =     0.00 Bohr mag/cell
     absolute magnetization    =     8.13 Bohr mag/cell

     iteration #  2     ecut=    30.00 Ry     beta= 0.30
     Davidson diagonalization with overlap

---- Real-time Memory Report at c_bands before calling an iterative solver
           119 MiB given to the printing process from OS
             0 MiB allocation reported by mallinfo(arena+hblkhd)
           506 MiB available memory on the node where the printing process lives
------------------
     ethr =  3.54E-03,  avg # of iterations =  2.2

     negative rho (up, down):  1.228E-04 1.234E-04

     total cpu time spent up to now is       10.8 secs

     total energy              =    -735.22055999 Ry
     estimated scf accuracy    <       0.58216943 Ry

     total magnetization       =     0.01 Bohr mag/cell
     absolute magnetization    =     7.37 Bohr mag/cell

     iteration #  3     ecut=    30.00 Ry     beta= 0.30
     Davidson diagonalization with overlap

---- Real-time Memory Report at c_bands before calling an iterative solver
           119 MiB given to the printing process from OS
             0 MiB allocation reported by mallinfo(arena+hblkhd)
           506 MiB available memory on the node where the printing process lives
------------------
     ethr =  1.32E-03,  avg # of iterations =  1.0

     negative rho (up, down):  3.170E-04 3.080E-04

     total cpu time spent up to now is       13.8 secs

     total energy              =    -735.39042963 Ry
     estimated scf accuracy    <       0.28255451 Ry

     total magnetization       =    -0.04 Bohr mag/cell
     absolute magnetization    =     7.42 Bohr mag/cell

     iteration #  4     ecut=    30.00 Ry     beta= 0.30
     Davidson diagonalization with overlap

---- Real-time Memory Report at c_bands before calling an iterative solver
           120 MiB given to the printing process from OS
             0 MiB allocation reported by mallinfo(arena+hblkhd)
           506 MiB available memory on the node where the printing process lives
------------------
     ethr =  6.42E-04,  avg # of iterations =  1.7

     negative rho (up, down):  3.250E-04 3.035E-04

     total cpu time spent up to now is       16.9 secs

     total energy              =    -735.39224016 Ry
     estimated scf accuracy    <       0.24547945 Ry

     total magnetization       =     0.70 Bohr mag/cell
     absolute magnetization    =     7.09 Bohr mag/cell

     iteration #  5     ecut=    30.00 Ry     beta= 0.30
     Davidson diagonalization with overlap

---- Real-time Memory Report at c_bands before calling an iterative solver
           120 MiB given to the printing process from OS
             0 MiB allocation reported by mallinfo(arena+hblkhd)
           505 MiB available memory on the node where the printing process lives
------------------
     ethr =  5.58E-04,  avg # of iterations =  1.3

     negative rho (up, down):  3.136E-04 3.069E-04

     total cpu time spent up to now is       19.9 secs

     total energy              =    -735.41123275 Ry
     estimated scf accuracy    <       0.04219188 Ry

     total magnetization       =    -0.26 Bohr mag/cell
     absolute magnetization    =     7.08 Bohr mag/cell

     iteration #  6     ecut=    30.00 Ry     beta= 0.30
     Davidson diagonalization with overlap

---- Real-time Memory Report at c_bands before calling an iterative solver
           121 MiB given to the printing process from OS
             0 MiB allocation reported by mallinfo(arena+hblkhd)
           505 MiB available memory on the node where the printing process lives
------------------
     ethr =  9.59E-05,  avg # of iterations =  1.2

     negative rho (up, down):  2.817E-04 2.775E-04

     total cpu time spent up to now is       22.9 secs

     total energy              =    -735.41364004 Ry
     estimated scf accuracy    <       0.00165491 Ry

     total magnetization       =    -0.02 Bohr mag/cell
     absolute magnetization    =     7.05 Bohr mag/cell

     iteration #  7     ecut=    30.00 Ry     beta= 0.30
     Davidson diagonalization with overlap

---- Real-time Memory Report at c_bands before calling an iterative solver
           121 MiB given to the printing process from OS
             0 MiB allocation reported by mallinfo(arena+hblkhd)
           504 MiB available memory on the node where the printing process lives
------------------
     ethr =  3.76E-06,  avg # of iterations =  4.2

     negative rho (up, down):  2.687E-04 2.653E-04

     total cpu time spent up to now is       26.2 secs

     total energy              =    -735.41416747 Ry
     estimated scf accuracy    <       0.00050662 Ry

     total magnetization       =     0.02 Bohr mag/cell
     absolute magnetization    =     7.05 Bohr mag/cell

     iteration #  8     ecut=    30.00 Ry     beta= 0.30
     Davidson diagonalization with overlap

---- Real-time Memory Report at c_bands before calling an iterative solver
           121 MiB given to the printing process from OS
             0 MiB allocation reported by mallinfo(arena+hblkhd)
           504 MiB available memory on the node where the printing process lives
------------------
     ethr =  1.15E-06,  avg # of iterations =  2.2

     negative rho (up, down):  2.644E-04 2.624E-04

     total cpu time spent up to now is       29.4 secs

     total energy              =    -735.41446326 Ry
     estimated scf accuracy    <       0.00017874 Ry

     total magnetization       =    -0.01 Bohr mag/cell
     absolute magnetization    =     7.05 Bohr mag/cell

     iteration #  9     ecut=    30.00 Ry     beta= 0.30
     Davidson diagonalization with overlap

---- Real-time Memory Report at c_bands before calling an iterative solver
           122 MiB given to the printing process from OS
             0 MiB allocation reported by mallinfo(arena+hblkhd)
           504 MiB available memory on the node where the printing process lives
------------------
     ethr =  4.06E-07,  avg # of iterations =  2.5

     negative rho (up, down):  2.612E-04 2.601E-04

     total cpu time spent up to now is       32.5 secs

     total energy              =    -735.41348837 Ry
     estimated scf accuracy    <       0.00016338 Ry

     total magnetization       =    -0.01 Bohr mag/cell
     absolute magnetization    =     7.05 Bohr mag/cell

     iteration # 10     ecut=    30.00 Ry     beta= 0.30
     Davidson diagonalization with overlap

---- Real-time Memory Report at c_bands before calling an iterative solver
           122 MiB given to the printing process from OS
             0 MiB allocation reported by mallinfo(arena+hblkhd)
           503 MiB available memory on the node where the printing process lives
------------------
     ethr =  3.71E-07,  avg # of iterations =  2.5

     negative rho (up, down):  2.646E-04 2.639E-04

     total cpu time spent up to now is       35.8 secs

     total energy              =    -735.41518785 Ry
     estimated scf accuracy    <       0.00007198 Ry

     total magnetization       =     0.00 Bohr mag/cell
     absolute magnetization    =     7.05 Bohr mag/cell

     iteration # 11     ecut=    30.00 Ry     beta= 0.30
     Davidson diagonalization with overlap

---- Real-time Memory Report at c_bands before calling an iterative solver
           122 MiB given to the printing process from OS
             0 MiB allocation reported by mallinfo(arena+hblkhd)
           503 MiB available memory on the node where the printing process lives
------------------
     ethr =  1.64E-07,  avg # of iterations =  2.2

     negative rho (up, down):  2.649E-04 2.646E-04

     total cpu time spent up to now is       39.1 secs

     total energy              =    -735.41556587 Ry
     estimated scf accuracy    <       0.00003995 Ry

     total magnetization       =    -0.00 Bohr mag/cell
     absolute magnetization    =     7.05 Bohr mag/cell

     iteration # 12     ecut=    30.00 Ry     beta= 0.30
     Davidson diagonalization with overlap

---- Real-time Memory Report at c_bands before calling an iterative solver
           122 MiB given to the printing process from OS
             0 MiB allocation reported by mallinfo(arena+hblkhd)
           503 MiB available memory on the node where the printing process lives
------------------
     ethr =  9.08E-08,  avg # of iterations =  2.0

     negative rho (up, down):  2.645E-04 2.643E-04

     total cpu time spent up to now is       42.2 secs

     total energy              =    -735.41561664 Ry
     estimated scf accuracy    <       0.00016787 Ry

     total magnetization       =    -0.00 Bohr mag/cell
     absolute magnetization    =     7.05 Bohr mag/cell

     iteration # 13     ecut=    30.00 Ry     beta= 0.30
     Davidson diagonalization with overlap

---- Real-time Memory Report at c_bands before calling an iterative solver
           122 MiB given to the printing process from OS
             0 MiB allocation reported by mallinfo(arena+hblkhd)
           503 MiB available memory on the node where the printing process lives
------------------
     ethr =  9.08E-08,  avg # of iterations =  2.5

     negative rho (up, down):  2.644E-04 2.643E-04

     total cpu time spent up to now is       45.4 secs

     total energy              =    -735.41573069 Ry
     estimated scf accuracy    <       0.00006316 Ry

     total magnetization       =    -0.00 Bohr mag/cell
     absolute magnetization    =     7.05 Bohr mag/cell

     iteration # 14     ecut=    30.00 Ry     beta= 0.30
     Davidson diagonalization with overlap

---- Real-time Memory Report at c_bands before calling an iterative solver
           122 MiB given to the printing process from OS
             0 MiB allocation reported by mallinfo(arena+hblkhd)
           503 MiB available memory on the node where the printing process lives
------------------
     ethr =  9.08E-08,  avg # of iterations =  2.2

     negative rho (up, down):  2.644E-04 2.644E-04

     total cpu time spent up to now is       48.6 secs

     total energy              =    -735.41582987 Ry
     estimated scf accuracy    <       0.00004508 Ry

     total magnetization       =    -0.00 Bohr mag/cell
     absolute magnetization    =     7.05 Bohr mag/cell

     iteration # 15     ecut=    30.00 Ry     beta= 0.30
     Davidson diagonalization with overlap

---- Real-time Memory Report at c_bands before calling an iterative solver
           122 MiB given to the printing process from OS
             0 MiB allocation reported by mallinfo(arena+hblkhd)
           503 MiB available memory on the node where the printing process lives
------------------
     ethr =  9.08E-08,  avg # of iterations =  1.7

     negative rho (up, down):  2.647E-04 2.648E-04

     total cpu time spent up to now is       51.6 secs

     total energy              =    -735.41585629 Ry
     estimated scf accuracy    <       0.00007061 Ry

     total magnetization       =    -0.00 Bohr mag/cell
     absolute magnetization    =     7.05 Bohr mag/cell

     iteration # 16     ecut=    30.00 Ry     beta= 0.30
     Davidson diagonalization with overlap

---- Real-time Memory Report at c_bands before calling an iterative solver
           122 MiB given to the printing process from OS
             0 MiB allocation reported by mallinfo(arena+hblkhd)
           503 MiB available memory on the node where the printing process lives
------------------
     ethr =  9.08E-08,  avg # of iterations =  1.2

     negative rho (up, down):  2.644E-04 2.645E-04

     total cpu time spent up to now is       54.7 secs

     total energy              =    -735.41590251 Ry
     estimated scf accuracy    <       0.00009133 Ry

     total magnetization       =    -0.00 Bohr mag/cell
     absolute magnetization    =     7.05 Bohr mag/cell

     iteration # 17     ecut=    30.00 Ry     beta= 0.30
     Davidson diagonalization with overlap

---- Real-time Memory Report at c_bands before calling an iterative solver
           122 MiB given to the printing process from OS
             0 MiB allocation reported by mallinfo(arena+hblkhd)
           503 MiB available memory on the node where the printing process lives
------------------
     ethr =  9.08E-08,  avg # of iterations =  2.2

     negative rho (up, down):  2.642E-04 2.642E-04

     total cpu time spent up to now is       57.7 secs

     total energy              =    -735.41592738 Ry
     estimated scf accuracy    <       0.00003896 Ry

     total magnetization       =     0.00 Bohr mag/cell
     absolute magnetization    =     7.05 Bohr mag/cell

     iteration # 18     ecut=    30.00 Ry     beta= 0.30
     Davidson diagonalization with overlap

---- Real-time Memory Report at c_bands before calling an iterative solver
           122 MiB given to the printing process from OS
             0 MiB allocation reported by mallinfo(arena+hblkhd)
           503 MiB available memory on the node where the printing process lives
------------------
     ethr =  8.86E-08,  avg # of iterations =  1.8

     negative rho (up, down):  2.635E-04 2.635E-04

     total cpu time spent up to now is       60.8 secs

     total energy              =    -735.41576662 Ry
     estimated scf accuracy    <       0.00001583 Ry

     total magnetization       =     0.00 Bohr mag/cell
     absolute magnetization    =     7.05 Bohr mag/cell

     iteration # 19     ecut=    30.00 Ry     beta= 0.30
     Davidson diagonalization with overlap

---- Real-time Memory Report at c_bands before calling an iterative solver
           122 MiB given to the printing process from OS
             0 MiB allocation reported by mallinfo(arena+hblkhd)
           503 MiB available memory on the node where the printing process lives
------------------
     ethr =  3.60E-08,  avg # of iterations =  3.2

     negative rho (up, down):  2.641E-04 2.641E-04

     total cpu time spent up to now is       64.2 secs

     total energy              =    -735.41597701 Ry
     estimated scf accuracy    <       0.00000869 Ry

     total magnetization       =     0.00 Bohr mag/cell
     absolute magnetization    =     7.05 Bohr mag/cell

     iteration # 20     ecut=    30.00 Ry     beta= 0.30
     Davidson diagonalization with overlap

---- Real-time Memory Report at c_bands before calling an iterative solver
           122 MiB given to the printing process from OS
             0 MiB allocation reported by mallinfo(arena+hblkhd)
           503 MiB available memory on the node where the printing process lives
------------------
     ethr =  1.98E-08,  avg # of iterations =  2.3

     negative rho (up, down):  2.639E-04 2.639E-04

     total cpu time spent up to now is       67.5 secs

     total energy              =    -735.41597654 Ry
     estimated scf accuracy    <       0.00000708 Ry

     total magnetization       =     0.00 Bohr mag/cell
     absolute magnetization    =     7.05 Bohr mag/cell

     iteration # 21     ecut=    30.00 Ry     beta= 0.30
     Davidson diagonalization with overlap

---- Real-time Memory Report at c_bands before calling an iterative solver
           122 MiB given to the printing process from OS
             0 MiB allocation reported by mallinfo(arena+hblkhd)
           503 MiB available memory on the node where the printing process lives
------------------
     ethr =  1.61E-08,  avg # of iterations =  2.4

     negative rho (up, down):  2.639E-04 2.639E-04

     total cpu time spent up to now is       70.7 secs

     total energy              =    -735.41599863 Ry
     estimated scf accuracy    <       0.00000094 Ry

     total magnetization       =     0.00 Bohr mag/cell
     absolute magnetization    =     7.04 Bohr mag/cell

     iteration # 22     ecut=    30.00 Ry     beta= 0.30
     Davidson diagonalization with overlap

---- Real-time Memory Report at c_bands before calling an iterative solver
           122 MiB given to the printing process from OS
             0 MiB allocation reported by mallinfo(arena+hblkhd)
           503 MiB available memory on the node where the printing process lives
------------------
     ethr =  2.14E-09,  avg # of iterations =  2.3

     negative rho (up, down):  2.637E-04 2.637E-04

     total cpu time spent up to now is       75.0 secs

     total energy              =    -735.41598556 Ry
     estimated scf accuracy    <       0.00000286 Ry

     total magnetization       =    -0.00 Bohr mag/cell
     absolute magnetization    =     7.04 Bohr mag/cell

     iteration # 23     ecut=    30.00 Ry     beta= 0.30
     Davidson diagonalization with overlap

---- Real-time Memory Report at c_bands before calling an iterative solver
           122 MiB given to the printing process from OS
             0 MiB allocation reported by mallinfo(arena+hblkhd)
           504 MiB available memory on the node where the printing process lives
------------------
     ethr =  2.14E-09,  avg # of iterations =  3.5

     negative rho (up, down):  2.638E-04 2.638E-04

     total cpu time spent up to now is       79.2 secs

     total energy              =    -735.41600301 Ry
     estimated scf accuracy    <       0.00000009 Ry

     total magnetization       =     0.00 Bohr mag/cell
     absolute magnetization    =     7.04 Bohr mag/cell

     iteration # 24     ecut=    30.00 Ry     beta= 0.30
     Davidson diagonalization with overlap

---- Real-time Memory Report at c_bands before calling an iterative solver
           122 MiB given to the printing process from OS
             0 MiB allocation reported by mallinfo(arena+hblkhd)
           504 MiB available memory on the node where the printing process lives
------------------
     ethr =  2.05E-10,  avg # of iterations =  3.4

     negative rho (up, down):  2.638E-04 2.638E-04

     total cpu time spent up to now is       83.4 secs

     total energy              =    -735.41601090 Ry
     estimated scf accuracy    <       0.00000003 Ry

     total magnetization       =     0.00 Bohr mag/cell
     absolute magnetization    =     7.04 Bohr mag/cell

     iteration # 25     ecut=    30.00 Ry     beta= 0.30
     Davidson diagonalization with overlap

---- Real-time Memory Report at c_bands before calling an iterative solver
           122 MiB given to the printing process from OS
             0 MiB allocation reported by mallinfo(arena+hblkhd)
           504 MiB available memory on the node where the printing process lives
------------------
     ethr =  7.04E-11,  avg # of iterations =  3.9

     negative rho (up, down):  2.637E-04 2.637E-04

     total cpu time spent up to now is       87.0 secs

     total energy              =    -735.41600743 Ry
     estimated scf accuracy    <       0.00000027 Ry

     total magnetization       =     0.00 Bohr mag/cell
     absolute magnetization    =     7.04 Bohr mag/cell

     iteration # 26     ecut=    30.00 Ry     beta= 0.30
     Davidson diagonalization with overlap

---- Real-time Memory Report at c_bands before calling an iterative solver
           122 MiB given to the printing process from OS
             0 MiB allocation reported by mallinfo(arena+hblkhd)
           504 MiB available memory on the node where the printing process lives
------------------
     ethr =  7.04E-11,  avg # of iterations =  4.7

     negative rho (up, down):  2.638E-04 2.638E-04

     total cpu time spent up to now is       90.9 secs

     total energy              =    -735.41601504 Ry
     estimated scf accuracy    <       0.00000012 Ry

     total magnetization       =     0.00 Bohr mag/cell
     absolute magnetization    =     7.04 Bohr mag/cell

     iteration # 27     ecut=    30.00 Ry     beta= 0.30
     Davidson diagonalization with overlap

---- Real-time Memory Report at c_bands before calling an iterative solver
           122 MiB given to the printing process from OS
             0 MiB allocation reported by mallinfo(arena+hblkhd)
           504 MiB available memory on the node where the printing process lives
------------------
     ethr =  7.04E-11,  avg # of iterations =  2.6

     negative rho (up, down):  2.638E-04 2.638E-04

     total cpu time spent up to now is       94.3 secs

     total energy              =    -735.41601659 Ry
     estimated scf accuracy    <       0.00000005 Ry

     total magnetization       =     0.00 Bohr mag/cell
     absolute magnetization    =     7.04 Bohr mag/cell

     iteration # 28     ecut=    30.00 Ry     beta= 0.30
     Davidson diagonalization with overlap

---- Real-time Memory Report at c_bands before calling an iterative solver
           122 MiB given to the printing process from OS
             0 MiB allocation reported by mallinfo(arena+hblkhd)
           504 MiB available memory on the node where the printing process lives
------------------
     ethr =  7.04E-11,  avg # of iterations =  3.0

     negative rho (up, down):  2.638E-04 2.638E-04

     total cpu time spent up to now is       97.6 secs

     total energy              =    -735.41601765 Ry
     estimated scf accuracy    <       0.00000006 Ry

     total magnetization       =     0.00 Bohr mag/cell
     absolute magnetization    =     7.04 Bohr mag/cell

     iteration # 29     ecut=    30.00 Ry     beta= 0.30
     Davidson diagonalization with overlap

---- Real-time Memory Report at c_bands before calling an iterative solver
           122 MiB given to the printing process from OS
             0 MiB allocation reported by mallinfo(arena+hblkhd)
           504 MiB available memory on the node where the printing process lives
------------------
     ethr =  7.04E-11,  avg # of iterations =  2.7

     negative rho (up, down):  2.638E-04 2.638E-04

     total cpu time spent up to now is      100.8 secs

     total energy              =    -735.41601831 Ry
     estimated scf accuracy    <       0.00000009 Ry

     total magnetization       =     0.00 Bohr mag/cell
     absolute magnetization    =     7.04 Bohr mag/cell

     iteration # 30     ecut=    30.00 Ry     beta= 0.30
     Davidson diagonalization with overlap

---- Real-time Memory Report at c_bands before calling an iterative solver
           122 MiB given to the printing process from OS
             0 MiB allocation reported by mallinfo(arena+hblkhd)
           504 MiB available memory on the node where the printing process lives
------------------
     ethr =  7.04E-11,  avg # of iterations =  2.3

     negative rho (up, down):  2.638E-04 2.638E-04

     total cpu time spent up to now is      104.1 secs

     total energy              =    -735.41601855 Ry
     estimated scf accuracy    <       0.00000016 Ry

     total magnetization       =    -0.00 Bohr mag/cell
     absolute magnetization    =     7.04 Bohr mag/cell

     iteration # 31     ecut=    30.00 Ry     beta= 0.30
     Davidson diagonalization with overlap

---- Real-time Memory Report at c_bands before calling an iterative solver
           122 MiB given to the printing process from OS
             0 MiB allocation reported by mallinfo(arena+hblkhd)
           504 MiB available memory on the node where the printing process lives
------------------
     ethr =  7.04E-11,  avg # of iterations =  2.9

     negative rho (up, down):  2.638E-04 2.638E-04

     total cpu time spent up to now is      107.7 secs

     total energy              =    -735.41601874 Ry
     estimated scf accuracy    <       0.00000011 Ry

     total magnetization       =    -0.00 Bohr mag/cell
     absolute magnetization    =     7.04 Bohr mag/cell

     iteration # 32     ecut=    30.00 Ry     beta= 0.30
     Davidson diagonalization with overlap

---- Real-time Memory Report at c_bands before calling an iterative solver
           122 MiB given to the printing process from OS
             0 MiB allocation reported by mallinfo(arena+hblkhd)
           504 MiB available memory on the node where the printing process lives
------------------
     ethr =  7.04E-11,  avg # of iterations =  2.3

     negative rho (up, down):  2.638E-04 2.638E-04

     total cpu time spent up to now is      111.3 secs

     total energy              =    -735.41601882 Ry
     estimated scf accuracy    <       0.00000013 Ry

     total magnetization       =    -0.00 Bohr mag/cell
     absolute magnetization    =     7.04 Bohr mag/cell

     iteration # 33     ecut=    30.00 Ry     beta= 0.30
     Davidson diagonalization with overlap

---- Real-time Memory Report at c_bands before calling an iterative solver
           122 MiB given to the printing process from OS
             0 MiB allocation reported by mallinfo(arena+hblkhd)
           504 MiB available memory on the node where the printing process lives
------------------
     ethr =  7.04E-11,  avg # of iterations =  1.8

     negative rho (up, down):  2.638E-04 2.638E-04

     total cpu time spent up to now is      114.6 secs

     total energy              =    -735.41601884 Ry
     estimated scf accuracy    <       0.00000017 Ry

     total magnetization       =    -0.00 Bohr mag/cell
     absolute magnetization    =     7.04 Bohr mag/cell

     iteration # 34     ecut=    30.00 Ry     beta= 0.30
     Davidson diagonalization with overlap

---- Real-time Memory Report at c_bands before calling an iterative solver
           122 MiB given to the printing process from OS
             0 MiB allocation reported by mallinfo(arena+hblkhd)
           504 MiB available memory on the node where the printing process lives
------------------
     ethr =  7.04E-11,  avg # of iterations =  1.8

     negative rho (up, down):  2.638E-04 2.638E-04

     total cpu time spent up to now is      117.9 secs

     total energy              =    -735.41601883 Ry
     estimated scf accuracy    <       0.00000018 Ry

     total magnetization       =    -0.00 Bohr mag/cell
     absolute magnetization    =     7.04 Bohr mag/cell

     iteration # 35     ecut=    30.00 Ry     beta= 0.30
     Davidson diagonalization with overlap

---- Real-time Memory Report at c_bands before calling an iterative solver
           122 MiB given to the printing process from OS
             0 MiB allocation reported by mallinfo(arena+hblkhd)
           504 MiB available memory on the node where the printing process lives
------------------
     ethr =  7.04E-11,  avg # of iterations =  1.1

     negative rho (up, down):  2.638E-04 2.638E-04

     total cpu time spent up to now is      121.2 secs

     total energy              =    -735.41601871 Ry
     estimated scf accuracy    <       0.00000019 Ry

     total magnetization       =    -0.00 Bohr mag/cell
     absolute magnetization    =     7.04 Bohr mag/cell

     iteration # 36     ecut=    30.00 Ry     beta= 0.30
     Davidson diagonalization with overlap

---- Real-time Memory Report at c_bands before calling an iterative solver
           122 MiB given to the printing process from OS
             0 MiB allocation reported by mallinfo(arena+hblkhd)
           504 MiB available memory on the node where the printing process lives
------------------
     ethr =  7.04E-11,  avg # of iterations =  1.0

     negative rho (up, down):  2.638E-04 2.638E-04

     total cpu time spent up to now is      124.3 secs

     total energy              =    -735.41601878 Ry
     estimated scf accuracy    <       0.00000025 Ry

     total magnetization       =    -0.00 Bohr mag/cell
     absolute magnetization    =     7.04 Bohr mag/cell

     iteration # 37     ecut=    30.00 Ry     beta= 0.30
     Davidson diagonalization with overlap

---- Real-time Memory Report at c_bands before calling an iterative solver
           122 MiB given to the printing process from OS
             0 MiB allocation reported by mallinfo(arena+hblkhd)
           504 MiB available memory on the node where the printing process lives
------------------
     ethr =  7.04E-11,  avg # of iterations =  1.7

     negative rho (up, down):  2.638E-04 2.638E-04

     total cpu time spent up to now is      127.3 secs

     total energy              =    -735.41601875 Ry
     estimated scf accuracy    <       0.00000021 Ry

     total magnetization       =    -0.00 Bohr mag/cell
     absolute magnetization    =     7.04 Bohr mag/cell

     iteration # 38     ecut=    30.00 Ry     beta= 0.30
     Davidson diagonalization with overlap

---- Real-time Memory Report at c_bands before calling an iterative solver
           122 MiB given to the printing process from OS
             0 MiB allocation reported by mallinfo(arena+hblkhd)
           503 MiB available memory on the node where the printing process lives
------------------
     ethr =  7.04E-11,  avg # of iterations =  1.0

     negative rho (up, down):  2.638E-04 2.638E-04

     total cpu time spent up to now is      130.4 secs

     total energy              =    -735.41601872 Ry
     estimated scf accuracy    <       0.00000022 Ry

     total magnetization       =    -0.00 Bohr mag/cell
     absolute magnetization    =     7.04 Bohr mag/cell

     iteration # 39     ecut=    30.00 Ry     beta= 0.30
     Davidson diagonalization with overlap

---- Real-time Memory Report at c_bands before calling an iterative solver
           122 MiB given to the printing process from OS
             0 MiB allocation reported by mallinfo(arena+hblkhd)
           503 MiB available memory on the node where the printing process lives
------------------
     ethr =  7.04E-11,  avg # of iterations =  1.0

     negative rho (up, down):  2.638E-04 2.638E-04

     total cpu time spent up to now is      133.4 secs

     total energy              =    -735.41601865 Ry
     estimated scf accuracy    <       0.00000022 Ry

     total magnetization       =    -0.00 Bohr mag/cell
     absolute magnetization    =     7.04 Bohr mag/cell

     iteration # 40     ecut=    30.00 Ry     beta= 0.30
     Davidson diagonalization with overlap

---- Real-time Memory Report at c_bands before calling an iterative solver
           122 MiB given to the printing process from OS
             0 MiB allocation reported by mallinfo(arena+hblkhd)
           503 MiB available memory on the node where the printing process lives
------------------
     ethr =  7.04E-11,  avg # of iterations =  1.0

     negative rho (up, down):  2.638E-04 2.638E-04

     total cpu time spent up to now is      136.4 secs

     total energy              =    -735.41601891 Ry
     estimated scf accuracy    <       0.00000025 Ry

     total magnetization       =    -0.00 Bohr mag/cell
     absolute magnetization    =     7.04 Bohr mag/cell

     iteration # 41     ecut=    30.00 Ry     beta= 0.30
     Davidson diagonalization with overlap

---- Real-time Memory Report at c_bands before calling an iterative solver
           122 MiB given to the printing process from OS
             0 MiB allocation reported by mallinfo(arena+hblkhd)
           503 MiB available memory on the node where the printing process lives
------------------
     ethr =  7.04E-11,  avg # of iterations =  2.5

     negative rho (up, down):  2.638E-04 2.638E-04

     total cpu time spent up to now is      139.5 secs

     total energy              =    -735.41601906 Ry
     estimated scf accuracy    <       0.00000012 Ry

     total magnetization       =    -0.00 Bohr mag/cell
     absolute magnetization    =     7.04 Bohr mag/cell

     iteration # 42     ecut=    30.00 Ry     beta= 0.30
     Davidson diagonalization with overlap

---- Real-time Memory Report at c_bands before calling an iterative solver
           122 MiB given to the printing process from OS
             0 MiB allocation reported by mallinfo(arena+hblkhd)
           503 MiB available memory on the node where the printing process lives
------------------
     ethr =  7.04E-11,  avg # of iterations =  2.3

     negative rho (up, down):  2.638E-04 2.638E-04

     total cpu time spent up to now is      142.6 secs

     total energy              =    -735.41601908 Ry
     estimated scf accuracy    <       0.00000003 Ry

     total magnetization       =    -0.00 Bohr mag/cell
     absolute magnetization    =     7.04 Bohr mag/cell

     iteration # 43     ecut=    30.00 Ry     beta= 0.30
     Davidson diagonalization with overlap

---- Real-time Memory Report at c_bands before calling an iterative solver
           122 MiB given to the printing process from OS
             0 MiB allocation reported by mallinfo(arena+hblkhd)
           503 MiB available memory on the node where the printing process lives
------------------
     ethr =  7.04E-11,  avg # of iterations =  1.0

     negative rho (up, down):  2.638E-04 2.638E-04

     total cpu time spent up to now is      145.6 secs

     total energy              =    -735.41601909 Ry
     estimated scf accuracy    <       0.00000003 Ry

     total magnetization       =    -0.00 Bohr mag/cell
     absolute magnetization    =     7.04 Bohr mag/cell

     iteration # 44     ecut=    30.00 Ry     beta= 0.30
     Davidson diagonalization with overlap

---- Real-time Memory Report at c_bands before calling an iterative solver
           122 MiB given to the printing process from OS
             0 MiB allocation reported by mallinfo(arena+hblkhd)
           503 MiB available memory on the node where the printing process lives
------------------
     ethr =  6.01E-11,  avg # of iterations =  1.2

     negative rho (up, down):  2.638E-04 2.638E-04

     total cpu time spent up to now is      148.6 secs

     total energy              =    -735.41601910 Ry
     estimated scf accuracy    <       0.00000002 Ry

     total magnetization       =    -0.00 Bohr mag/cell
     absolute magnetization    =     7.04 Bohr mag/cell

     iteration # 45     ecut=    30.00 Ry     beta= 0.30
     Davidson diagonalization with overlap

---- Real-time Memory Report at c_bands before calling an iterative solver
           122 MiB given to the printing process from OS
             0 MiB allocation reported by mallinfo(arena+hblkhd)
           503 MiB available memory on the node where the printing process lives
------------------
     ethr =  4.93E-11,  avg # of iterations =  2.3

     negative rho (up, down):  2.638E-04 2.638E-04

     total cpu time spent up to now is      151.7 secs

     total energy              =    -735.41601909 Ry
     estimated scf accuracy    <          1.9E-09 Ry

     total magnetization       =     0.00 Bohr mag/cell
     absolute magnetization    =     7.04 Bohr mag/cell

     iteration # 46     ecut=    30.00 Ry     beta= 0.30
     Davidson diagonalization with overlap

---- Real-time Memory Report at c_bands before calling an iterative solver
           122 MiB given to the printing process from OS
             0 MiB allocation reported by mallinfo(arena+hblkhd)
           503 MiB available memory on the node where the printing process lives
------------------
     ethr =  4.41E-12,  avg # of iterations =  3.7

     negative rho (up, down):  2.638E-04 2.638E-04

     Magnetic moment per site  (integrated on atomic sphere of radius R)
     atom   1 (R=0.206)  charge= 13.6362  magn=  3.2567
     atom   2 (R=0.206)  charge= 13.6362  magn= -3.2567
     atom   3 (R=0.206)  charge=  5.8127  magn=  0.0000
     atom   4 (R=0.206)  charge=  5.8127  magn=  0.0000

     total cpu time spent up to now is      155.1 secs

     End of self-consistent calculation

 ------ SPIN UP ------------


          k = 0.0000 0.0000 0.0000 (   731 PWs)   bands (ev):

   -75.8527 -71.9492 -41.6113 -41.4534 -41.4534 -37.7561 -37.7220 -37.7220
    -6.3925  -5.2077   5.7071   7.9088   7.9088  10.4098  10.5747  10.5747
    10.6580  10.6745  10.6745  11.5591  11.5591  13.4351  13.4351  14.0690
    14.6610  15.6342

     occupation numbers 
     1.0000   1.0000   1.0000   1.0000   1.0000   1.0000   1.0000   1.0000
     1.0000   1.0000   1.0000   1.0000   1.0000   1.0000   1.0000   1.0000
     1.0000   1.0000   1.0000   1.0000   1.0000   1.0235   1.0235   0.0079
     0.0000   0.0000

          k = 0.5000-0.1667-0.1667 (   758 PWs)   bands (ev):

   -75.8613 -71.9564 -41.6310 -41.5361 -41.4828 -37.8107 -37.7781 -37.7533
    -5.6330  -5.1838   6.9664   7.1084   7.7082   8.1964   8.7278   9.2028
    10.3075  11.0334  11.2693  12.0069  12.3186  13.1599  13.9924  14.3889
    15.1586  15.4250

     occupation numbers 
     1.0000   1.0000   1.0000   1.0000   1.0000   1.0000   1.0000   1.0000
     1.0000   1.0000   1.0000   1.0000   1.0000   1.0000   1.0000   1.0000
     1.0000   1.0000   1.0000   1.0000   1.0000   1.0412   0.0239   0.0000
     0.0000   0.0000

          k = 0.3333 0.3333-0.3333 (   753 PWs)   bands (ev):

   -75.8578 -71.9533 -41.6071 -41.5406 -41.4716 -37.8144 -37.7557 -37.7432
    -5.5395  -5.2821   6.6232   7.1542   8.0614   8.2481   8.7224   9.1273
    10.3137  11.0246  11.0538  12.2810  12.3547  13.1903  14.0246  14.3533
    15.4588  15.5405

     occupation numbers 
     1.0000   1.0000   1.0000   1.0000   1.0000   1.0000   1.0000   1.0000
     1.0000   1.0000   1.0000   1.0000   1.0000   1.0000   1.0000   1.0000
     1.0000   1.0000   1.0000   1.0000   1.0000   1.0514   0.0153   0.0000
     0.0000   0.0000

          k =-0.6667 0.6667 0.0000 (   767 PWs)   bands (ev):

   -75.8639 -71.9585 -41.6161 -41.5526 -41.5446 -37.8239 -37.8183 -37.7632
    -5.1846  -5.1842   6.9724   7.0469   7.6724   7.8717   8.1924   8.4228
    10.5762  11.1365  11.1782  12.0271  12.2943  13.8554  13.9192  14.2633
    15.3627  15.5016

     occupation numbers 
     1.0000   1.0000   1.0000   1.0000   1.0000   1.0000   1.0000   1.0000
     1.0000   1.0000   1.0000   1.0000   1.0000   1.0000   1.0000   1.0000
     1.0000   1.0000   1.0000   1.0000   1.0000   0.1181   0.0596   0.0002
     0.0000   0.0000

          k = 0.1667 0.1667 0.1667 (   739 PWs)   bands (ev):

   -75.8562 -71.9523 -41.6199 -41.4564 -41.4564 -37.7712 -37.7269 -37.7269
    -6.1314  -5.5386   6.5793   8.1924   8.1924   8.7570   9.7109   9.7109
    10.6237  10.6237  10.6992  12.4319  12.4319  13.3739  13.3739  13.8895
    15.4252  15.4252

     occupation numbers 
     1.0000   1.0000   1.0000   1.0000   1.0000   1.0000   1.0000   1.0000
     1.0000   1.0000   1.0000   1.0000   1.0000   1.0000   1.0000   1.0000
     1.0000   1.0000   1.0000   1.0000   1.0000   1.0718   1.0718   0.0830
     0.0000   0.0000

          k =-0.8333 0.5000 0.5000 (   762 PWs)   bands (ev):

   -75.8615 -71.9566 -41.6273 -41.5499 -41.4840 -37.8223 -37.7749 -37.7543
    -5.5060  -5.3112   6.3974   6.9862   8.0694   8.1835   9.5262   9.5303
    10.0109  11.0808  11.1357  11.8587  11.9008  13.3369  13.9941  14.3835
    14.9873  15.6751

     occupation numbers 
     1.0000   1.0000   1.0000   1.0000   1.0000   1.0000   1.0000   1.0000
     1.0000   1.0000   1.0000   1.0000   1.0000   1.0000   1.0000   1.0000
     1.0000   1.0000   1.0000   1.0000   1.0000   1.0823   0.0233   0.0000
     0.0000   0.0000

 ------ SPIN DOWN ----------


          k = 0.0000 0.0000 0.0000 (   731 PWs)   bands (ev):

   -75.8527 -71.9492 -41.6113 -41.4534 -41.4534 -37.7561 -37.7220 -37.7220
    -6.3925  -5.2077   5.7071   7.9088   7.9088  10.4098  10.5747  10.5747
    10.6580  10.6745  10.6745  11.5591  11.5591  13.4351  13.4351  14.0689
    14.6610  15.6342

     occupation numbers 
     1.0000   1.0000   1.0000   1.0000   1.0000   1.0000   1.0000   1.0000
     1.0000   1.0000   1.0000   1.0000   1.0000   1.0000   1.0000   1.0000
     1.0000   1.0000   1.0000   1.0000   1.0000   1.0235   1.0235   0.0079
     0.0000   0.0000

          k = 0.5000-0.1667-0.1667 (   758 PWs)   bands (ev):

   -75.8613 -71.9564 -41.6310 -41.5361 -41.4828 -37.8107 -37.7781 -37.7533
    -5.6330  -5.1838   6.9664   7.1084   7.7082   8.1964   8.7278   9.2028
    10.3074  11.0334  11.2693  12.0069  12.3186  13.1599  13.9924  14.3889
    15.1586  15.4250

     occupation numbers 
     1.0000   1.0000   1.0000   1.0000   1.0000   1.0000   1.0000   1.0000
     1.0000   1.0000   1.0000   1.0000   1.0000   1.0000   1.0000   1.0000
     1.0000   1.0000   1.0000   1.0000   1.0000   1.0412   0.0239   0.0000
     0.0000   0.0000

          k = 0.3333 0.3333-0.3333 (   753 PWs)   bands (ev):

   -75.8578 -71.9533 -41.6071 -41.5406 -41.4716 -37.8144 -37.7557 -37.7432
    -5.5395  -5.2821   6.6232   7.1542   8.0614   8.2481   8.7224   9.1273
    10.3137  11.0246  11.0538  12.2810  12.3547  13.1903  14.0246  14.3533
    15.4588  15.5405

     occupation numbers 
     1.0000   1.0000   1.0000   1.0000   1.0000   1.0000   1.0000   1.0000
     1.0000   1.0000   1.0000   1.0000   1.0000   1.0000   1.0000   1.0000
     1.0000   1.0000   1.0000   1.0000   1.0000   1.0514   0.0153   0.0000
     0.0000   0.0000

          k =-0.6667 0.6667 0.0000 (   767 PWs)   bands (ev):

   -75.8639 -71.9585 -41.6161 -41.5526 -41.5446 -37.8239 -37.8183 -37.7632
    -5.1846  -5.1842   6.9724   7.0469   7.6724   7.8717   8.1924   8.4228
    10.5762  11.1365  11.1782  12.0271  12.2943  13.8554  13.9192  14.2633
    15.3627  15.5016

     occupation numbers 
     1.0000   1.0000   1.0000   1.0000   1.0000   1.0000   1.0000   1.0000
     1.0000   1.0000   1.0000   1.0000   1.0000   1.0000   1.0000   1.0000
     1.0000   1.0000   1.0000   1.0000   1.0000   0.1181   0.0596   0.0002
     0.0000   0.0000

          k = 0.1667 0.1667 0.1667 (   739 PWs)   bands (ev):

   -75.8562 -71.9523 -41.6199 -41.4564 -41.4564 -37.7712 -37.7269 -37.7269
    -6.1314  -5.5386   6.5793   8.1924   8.1924   8.7570   9.7109   9.7109
    10.6237  10.6237  10.6992  12.4319  12.4319  13.3739  13.3739  13.8895
    15.4252  15.4252

     occupation numbers 
     1.0000   1.0000   1.0000   1.0000   1.0000   1.0000   1.0000   1.0000
     1.0000   1.0000   1.0000   1.0000   1.0000   1.0000   1.0000   1.0000
     1.0000   1.0000   1.0000   1.0000   1.0000   1.0718   1.0718   0.0830
     0.0000   0.0000

          k =-0.8333 0.5000 0.5000 (   762 PWs)   bands (ev):

   -75.8615 -71.9566 -41.6273 -41.5499 -41.4840 -37.8223 -37.7749 -37.7543
    -5.5060  -5.3112   6.3974   6.9862   8.0694   8.1835   9.5262   9.5303
    10.0109  11.0808  11.1357  11.8587  11.9008  13.3369  13.9942  14.3835
    14.9873  15.6751

     occupation numbers 
     1.0000   1.0000   1.0000   1.0000   1.0000   1.0000   1.0000   1.0000
     1.0000   1.0000   1.0000   1.0000   1.0000   1.0000   1.0000   1.0000
     1.0000   1.0000   1.0000   1.0000   1.0000   1.0823   0.0233   0.0000
     0.0000   0.0000

     the Fermi energy is    13.7043 ev

!    total energy              =    -735.41601912 Ry

     total all-electron energy =     -5385.792041 Ry
     estimated scf accuracy    <          4.9E-10 Ry
     smearing contrib. (-TS)   =       0.00216316 Ry
     internal energy E=F+TS    =    -735.41818228 Ry

     The total energy is F=E-TS. E is the sum of the following terms:
     one-electron contribution =    -266.70634402 Ry
     hartree contribution      =     159.15389962 Ry
     xc contribution           =     -83.61064546 Ry
     ewald contribution        =    -378.02403899 Ry
     one-center paw contrib.   =    -166.23105345 Ry
      -> PAW hartree energy AE =     472.00310721 Ry
      -> PAW hartree energy PS =    -470.22509637 Ry
      -> PAW xc energy AE      =    -250.82028908 Ry
      -> PAW xc energy PS      =      82.81122479 Ry
      -> total E_H with PAW    =     160.93191047 Ry
      -> total E_XC with PAW   =    -251.61970975 Ry

     total magnetization       =     0.00 Bohr mag/cell
     absolute magnetization    =     7.04 Bohr mag/cell

     convergence has been achieved in  46 iterations

     Writing all to output data dir ././feo.save/

     init_run     :      3.37s CPU      3.51s WALL (       1 calls)
     electrons    :    146.11s CPU    151.09s WALL (       1 calls)

     Called by init_run:
     wfcinit      :      0.70s CPU      0.72s WALL (       1 calls)
     wfcinit:atom :      0.00s CPU      0.00s WALL (      12 calls)
     wfcinit:wfcr :      0.68s CPU      0.69s WALL (      12 calls)
     potinit      :      1.45s CPU      1.53s WALL (       1 calls)
     hinit0       :      1.07s CPU      1.08s WALL (       1 calls)

     Called by electrons:
     c_bands      :     57.13s CPU     57.61s WALL (      46 calls)
     sum_band     :     18.28s CPU     20.24s WALL (      46 calls)
     v_of_rho     :     11.25s CPU     11.62s WALL (      47 calls)
     v_h          :      0.18s CPU      0.21s WALL (      47 calls)
     v_xc         :     11.07s CPU     11.41s WALL (      47 calls)
     newd         :      5.04s CPU      6.97s WALL (      47 calls)
     PAW_pot      :     54.39s CPU     54.71s WALL (      47 calls)
     mix_rho      :      0.84s CPU      0.84s WALL (      46 calls)

     Called by c_bands:
     init_us_2    :      0.46s CPU      0.47s WALL (    1116 calls)
     init_us_2:cp :      0.46s CPU      0.47s WALL (    1116 calls)
     cegterg      :     56.24s CPU     56.69s WALL (     552 calls)

     Called by sum_band:
     sum_band:wei :      0.03s CPU      0.04s WALL (      46 calls)
     sum_band:loo :     11.08s CPU     11.19s WALL (      46 calls)
     sum_band:buf :      0.04s CPU      0.04s WALL (     552 calls)
     sum_band:ini :      0.23s CPU      0.24s WALL (     552 calls)
     sum_band:cal :      0.92s CPU      0.94s WALL (     552 calls)
     sum_band:bec :      0.03s CPU      0.03s WALL (     552 calls)
     addusdens    :      6.59s CPU      8.42s WALL (      46 calls)
     addusd:skk   :      0.01s CPU      0.02s WALL (     138 calls)
     addusd:dgemm :      2.19s CPU      3.76s WALL (     276 calls)
     addusd:qvan2 :      3.95s CPU      3.96s WALL (     276 calls)

     Called by *egterg:
     cdiaghg      :      1.49s CPU      1.49s WALL (    1772 calls)
     cegterg:over :      2.08s CPU      2.08s WALL (    1220 calls)
     cegterg:upda :      0.97s CPU      0.98s WALL (    1220 calls)
     cegterg:last :      2.21s CPU      2.23s WALL (     955 calls)
     h_psi        :     47.30s CPU     47.72s WALL (    1784 calls)
     s_psi        :      1.68s CPU      1.69s WALL (    1784 calls)
     g_psi        :      0.06s CPU      0.06s WALL (    1220 calls)

     Called by h_psi:
     h_psi:calbec :      2.01s CPU      2.02s WALL (    1784 calls)
     vloc_psi     :     43.54s CPU     43.94s WALL (    1784 calls)
     add_vuspsi   :      1.66s CPU      1.67s WALL (    1784 calls)

     General routines
     calbec       :      2.92s CPU      2.95s WALL (    2336 calls)
     fft          :      4.00s CPU      4.04s WALL (    1169 calls)
     ffts         :      0.18s CPU      0.19s WALL (     186 calls)
     fftw         :     48.74s CPU     49.26s WALL (   79424 calls)
     interpolate  :      0.50s CPU      0.51s WALL (      94 calls)

     Parallel routines

     PAW routines
     PAW_pot      :     54.39s CPU     54.71s WALL (      47 calls)
     PAW_symme    :      0.03s CPU      0.03s WALL (      93 calls)

     PWSCF        :   2m30.02s CPU   2m35.21s WALL


   This run was terminated on:  23:42: 5   9Feb2022            

=------------------------------------------------------------------------------=
   JOB DONE.
=------------------------------------------------------------------------------=
