
     Program PHONON v.7.0 starts on 10Feb2022 at  1: 3:46 

     This program is part of the open-source Quantum ESPRESSO suite
     for quantum simulation of materials; please cite
         "P. Giannozzi et al., J. Phys.:Condens. Matter 21 395502 (2009);
         "P. Giannozzi et al., J. Phys.:Condens. Matter 29 465901 (2017);
         "P. Giannozzi et al., J. Chem. Phys. 152 154105 (2020);
          URL http://www.quantum-espresso.org", 
     in publications or presentations arising from this work. More details at
     http://www.quantum-espresso.org/quote

     Parallel version (MPI), running on     2 processors

     MPI processes distributed on     1 nodes
     path-images division:  nimage    =       2
     702 MiB available memory on the printing compute node when the environment starts

     Reading input from 03-nacl-ph-epsil.in
      Title line not specified: using 'default'.

     Reading xml data from directory:

     ./nacl.save/

     IMPORTANT: XC functional enforced from input :
     Exchange-correlation= PBE
                           (   1   4   3   4   0   0   0)
     Any further DFT definition will be discarded
     Please, verify this is what you really want


     G-vector sticks info
     --------------------
     sticks:   dense  smooth     PW     G-vecs:    dense   smooth      PW
     Sum        2407     805    241                77665    15009    2445

     Using Slab Decomposition


     negative rho (up, down):  1.445E-02 0.000E+00
     Reading collected, re-writing distributed wavefunctions

      Image parallelization. There are  2 images and     2 representations
      The estimated total work is     7 self-consistent (scf) runs
      I am image number     0 and my work is about    4 scf runs. I calculate: 
      q point number     1, representations:
       0 1

     Calculation of q =    0.0000000   0.0000000   0.0000000

     default                                                                    

     bravais-lattice index     =            2
     lattice parameter (alat)  =      10.7725  a.u.
     unit-cell volume          =     312.5286 (a.u.)^3
     number of atoms/cell      =            2
     number of atomic types    =            2
     kinetic-energy cut-off    =      50.0000  Ry
     charge density cut-off    =     600.0000  Ry
     convergence threshold     =      1.0E-16
     beta                      =       0.7000
     number of iterations used =            4
     Exchange-correlation= PBE
                           (   1   4   3   4   0   0   0)


     celldm(1)=   10.77250  celldm(2)=    0.00000  celldm(3)=    0.00000
     celldm(4)=    0.00000  celldm(5)=    0.00000  celldm(6)=    0.00000

     crystal axes: (cart. coord. in units of alat)
               a(1) = ( -0.5000  0.0000  0.5000 )  
               a(2) = (  0.0000  0.5000  0.5000 )  
               a(3) = ( -0.5000  0.5000  0.0000 )  

     reciprocal axes: (cart. coord. in units 2 pi/alat)
               b(1) = ( -1.0000 -1.0000  1.0000 )  
               b(2) = (  1.0000  1.0000  1.0000 )  
               b(3) = ( -1.0000  1.0000 -1.0000 )  


     Atoms inside the unit cell: 

     Cartesian axes

     site n.  atom      mass           positions (alat units)
        1     Na  22.9898   tau(    1) = (    0.00000    0.00000    0.00000  )
        2     Cl  35.4530   tau(    2) = (   -0.50000    0.50000    0.50000  )

     Computing dynamical matrix for 
                    q = (   0.0000000   0.0000000   0.0000000 )

     49 Sym.Ops. (with q -> -q+G )


     G cutoff = 1763.6998  (  77665 G-vectors)     FFT grid: ( 60, 60, 60)
     G cutoff =  587.8999  (  15009 G-vectors)  smooth grid: ( 36, 36, 36)
     number of k points=    10
                       cart. coord. in units 2pi/alat
        k(    1) = (   0.0000000   0.0000000   0.0000000), wk =   0.0160000
        k(    2) = (  -0.2000000   0.2000000  -0.2000000), wk =   0.1280000
        k(    3) = (  -0.4000000   0.4000000  -0.4000000), wk =   0.1280000
        k(    4) = (   0.0000000   0.4000000   0.0000000), wk =   0.0960000
        k(    5) = (  -0.2000000   0.6000000  -0.2000000), wk =   0.3840000
        k(    6) = (   0.6000000  -0.2000000   0.6000000), wk =   0.3840000
        k(    7) = (   0.4000000   0.0000000   0.4000000), wk =   0.1920000
        k(    8) = (   0.0000000   0.8000000   0.0000000), wk =   0.0960000
        k(    9) = (   0.8000000   0.0000000   0.8000000), wk =   0.1920000
        k(   10) = (   0.6000000  -0.2000000   1.0000000), wk =   0.3840000

     PseudoPot. # 1 for Na read from file:
     /home/user/pseudo_dir/na_pbe_v1.5.uspp.F.UPF
     MD5 check sum: 44600605ef58000f06b90626533354dc
     Pseudo is Ultrasoft, Zval =  9.0
     Generated by new atomic code, or converted to UPF format
     Using radial grid of  819 points,  5 beta functions with: 
                l(1) =   0
                l(2) =   0
                l(3) =   1
                l(4) =   1
                l(5) =   2
     Q(r) pseudized with  8 coefficients,  rinner =    1.250   1.250   1.250
                                                       1.250   1.250

     PseudoPot. # 2 for Cl read from file:
     /home/user/pseudo_dir/cl_pbe_v1.4.uspp.F.UPF
     MD5 check sum: fc6f6913ecf08c9257cb748ef0700058
     Pseudo is Ultrasoft + core correction, Zval =  7.0
     Generated by new atomic code, or converted to UPF format
     Using radial grid of  909 points,  6 beta functions with: 
                l(1) =   0
                l(2) =   0
                l(3) =   1
                l(4) =   1
                l(5) =   2
                l(6) =   2
     Q(r) pseudized with  8 coefficients,  rinner =    1.300   1.300   1.300
                                                       1.300   1.300

     Mode symmetry, O_h (m-3m)  point group:


     Electric field:
     Dielectric constant
     Born effective charges as d Force / d E


     Atomic displacements:
     There are    2 irreducible representations

     Representation     1      3 modes -  To be done

     Representation     2      3 modes -  Not done in this run

     Compute atoms:     2,



     Alpha used in Ewald sum =   2.8000

     negative rho (up, down):  1.445E-02 0.000E+00
     PHONON       :     21.11s CPU     22.47s WALL


     Electric Fields Calculation

      iter #   1 total cpu time :    44.3 secs   av.it.:   5.6
      thresh= 1.000E-02 alpha_mix =  0.700 |ddv_scf|^2 =  2.491E-08

      iter #   2 total cpu time :    56.5 secs   av.it.:  13.3
      thresh= 1.578E-05 alpha_mix =  0.700 |ddv_scf|^2 =  3.248E-09

      iter #   3 total cpu time :    68.2 secs   av.it.:  11.9
      thresh= 5.699E-06 alpha_mix =  0.700 |ddv_scf|^2 =  2.227E-10

      iter #   4 total cpu time :    80.3 secs   av.it.:  12.4
      thresh= 1.492E-06 alpha_mix =  0.700 |ddv_scf|^2 =  2.093E-13

      iter #   5 total cpu time :    93.3 secs   av.it.:  13.8
      thresh= 4.575E-08 alpha_mix =  0.700 |ddv_scf|^2 =  9.665E-16

      iter #   6 total cpu time :   105.9 secs   av.it.:  12.5
      thresh= 3.109E-09 alpha_mix =  0.700 |ddv_scf|^2 =  4.539E-17

     End of electric fields calculation

          Dielectric constant in cartesian axis 

          (       2.492496658       0.000000000       0.000000000 )
          (       0.000000000       2.492496658       0.000000000 )
          (      -0.000000000       0.000000000       2.492496658 )

          Effective charges (d Force / dE) in cartesian axis without acoustic sum rule applied (asr)

           atom      1   Na Mean Z*:        1.11209
      Ex  (        1.11209       -0.00000        0.00000 )
      Ey  (       -0.00000        1.11209       -0.00000 )
      Ez  (        0.00000        0.00000        1.11209 )
           atom      2   Cl Mean Z*:       -1.11258
      Ex  (       -1.11258        0.00000        0.00000 )
      Ey  (        0.00000       -1.11258        0.00000 )
      Ez  (        0.00000        0.00000       -1.11258 )

          Effective charges Sum: Mean:       -0.00048
             -0.00048        0.00000        0.00000
              0.00000       -0.00048        0.00000
              0.00000        0.00000       -0.00048

          Effective charges (d Force / dE) in cartesian axis with asr applied: 
           atom      1   Na Mean Z*:        1.11234
      E*x (        1.11234       -0.00000        0.00000 )
      E*y (       -0.00000        1.11234       -0.00000 )
      E*z (        0.00000       -0.00000        1.11234 )
           atom      2   Cl Mean Z*:       -1.11234
      E*x (       -1.11234        0.00000        0.00000 )
      E*y (        0.00000       -1.11234        0.00000 )
      E*z (       -0.00000        0.00000       -1.11234 )


     Representation #   1 modes #   1   2   3

     Self-consistent Calculation

      iter #   1 total cpu time :   124.1 secs   av.it.:   6.2
      thresh= 1.000E-02 alpha_mix =  0.700 |ddv_scf|^2 =  9.228E-08

      iter #   2 total cpu time :   138.6 secs   av.it.:  14.2
      thresh= 3.038E-05 alpha_mix =  0.700 |ddv_scf|^2 =  1.004E-08

      iter #   3 total cpu time :   152.1 secs   av.it.:  12.9
      thresh= 1.002E-05 alpha_mix =  0.700 |ddv_scf|^2 =  1.062E-10

      iter #   4 total cpu time :   166.1 secs   av.it.:  14.1
      thresh= 1.031E-06 alpha_mix =  0.700 |ddv_scf|^2 =  8.187E-13

      iter #   5 total cpu time :   180.1 secs   av.it.:  13.9
      thresh= 9.048E-08 alpha_mix =  0.700 |ddv_scf|^2 =  3.366E-15

      iter #   6 total cpu time :   194.7 secs   av.it.:  13.6
      thresh= 5.801E-09 alpha_mix =  0.700 |ddv_scf|^2 =  4.752E-17

     End of self-consistent calculation

     Convergence has been achieved 

     Stopping because representation    2 is not done

     PHONON       :   3m 6.26s CPU   3m15.49s WALL

     INITIALIZATION: 
     phq_setup    :      0.46s CPU      0.73s WALL (       1 calls)
     phq_init     :     18.68s CPU     19.45s WALL (       1 calls)

     phq_init     :     18.68s CPU     19.45s WALL (       1 calls)
     set_drhoc    :      2.34s CPU      2.39s WALL (       3 calls)
     init_vloc    :      0.01s CPU      0.01s WALL (       1 calls)
     init_us_1    :      0.80s CPU      0.88s WALL (       1 calls)
     init_us_2    :      0.19s CPU      0.22s WALL (     230 calls)
     newd         :      0.44s CPU      0.60s WALL (       1 calls)
     dvanqq       :     11.03s CPU     11.50s WALL (       1 calls)
     drho         :      3.47s CPU      3.54s WALL (       1 calls)
     cmpt_qdipol  :      0.00s CPU      0.00s WALL (       1 calls)

     DIELECTRIC CONSTANT AND EFFECTIVE CHARGES:
     solve_e      :     80.50s CPU     83.47s WALL (       1 calls)
     dielec       :      0.01s CPU      0.02s WALL (       1 calls)
     zstar_eu     :      8.28s CPU      8.80s WALL (       1 calls)

     DYNAMICAL MATRIX:
     dynmat0      :      1.96s CPU      2.03s WALL (       1 calls)
     phqscf       :     76.37s CPU     80.69s WALL (       1 calls)
     dynmatrix    :      0.00s CPU      0.03s WALL (       1 calls)

     phqscf       :     76.37s CPU     80.69s WALL (       1 calls)
     solve_linter :     76.23s CPU     80.49s WALL (       1 calls)
     drhodv       :      0.14s CPU      0.17s WALL (       1 calls)

     dynmat0      :      1.96s CPU      2.03s WALL (       1 calls)
     dynmat_us    :      0.17s CPU      0.17s WALL (       1 calls)
     d2ionq       :      0.04s CPU      0.04s WALL (       1 calls)
     dynmatcc     :      1.76s CPU      1.82s WALL (       1 calls)

     dynmat_us    :      0.17s CPU      0.17s WALL (       1 calls)
     addusdynmat  :      0.00s CPU      0.00s WALL (       1 calls)

     phqscf       :     76.37s CPU     80.69s WALL (       1 calls)
     solve_linter :     76.23s CPU     80.49s WALL (       1 calls)

     solve_linter :     76.23s CPU     80.49s WALL (       1 calls)
     dvqpsi_us    :      1.68s CPU      1.78s WALL (      90 calls)
     sth_kernel   :     92.70s CPU     96.00s WALL (      12 calls)
     apply_dpot_b :      3.82s CPU      4.03s WALL (     300 calls)
     ortho        :      0.82s CPU      0.89s WALL (     390 calls)
     cgsolve      :     94.50s CPU     98.14s WALL (     390 calls)
     incdrhoscf   :      6.38s CPU      6.59s WALL (     390 calls)
     addusddens   :      8.23s CPU      8.50s WALL (       8 calls)
     dv_of_drho   :      4.38s CPU      4.98s WALL (      39 calls)
     mix_pot      :      0.45s CPU      1.11s WALL (      12 calls)
     psymdvscf    :     10.29s CPU     10.73s WALL (       6 calls)
     newdq        :     17.14s CPU     17.75s WALL (      12 calls)
     adddvscf     :      0.28s CPU      0.30s WALL (     300 calls)
     drhodvus     :      0.02s CPU      0.03s WALL (       1 calls)

     dvqpsi_us    :      1.68s CPU      1.78s WALL (      90 calls)
     dvqpsi_us_on :      0.28s CPU      0.29s WALL (      90 calls)

     cgsolve      :     94.50s CPU     98.14s WALL (     390 calls)
     ch_psi       :     92.17s CPU     95.72s WALL (    7092 calls)

     ch_psi       :     92.17s CPU     95.72s WALL (    7092 calls)
     h_psi        :     75.40s CPU     78.41s WALL (    7092 calls)
     last         :     12.17s CPU     12.58s WALL (    7092 calls)

     h_psi        :     75.40s CPU     78.41s WALL (    7092 calls)
     add_vuspsi   :      3.87s CPU      4.01s WALL (    7092 calls)

     incdrhoscf   :      6.38s CPU      6.59s WALL (     390 calls)
     addusdbec    :      0.48s CPU      0.49s WALL (     450 calls)

     drhodvus     :      0.02s CPU      0.03s WALL (       1 calls)

      General routines
     calbec       :     12.41s CPU     12.91s WALL (   16744 calls)
     fft          :      5.55s CPU      5.71s WALL (     842 calls)
     ffts         :      0.22s CPU      0.24s WALL (     184 calls)
     fftw         :     67.76s CPU     70.73s WALL (   96632 calls)
     davcio       :      0.27s CPU      0.92s WALL (    2182 calls)
     write_rec    :      0.02s CPU      0.22s WALL (      13 calls)


     PHONON       :   3m 6.26s CPU   3m15.50s WALL


   This run was terminated on:   1: 7: 2  10Feb2022            

=------------------------------------------------------------------------------=
   JOB DONE.
=------------------------------------------------------------------------------=
