
     Program PHONON v.7.0 starts on 10Feb2022 at  1: 7:48 

     This program is part of the open-source Quantum ESPRESSO suite
     for quantum simulation of materials; please cite
         "P. Giannozzi et al., J. Phys.:Condens. Matter 21 395502 (2009);
         "P. Giannozzi et al., J. Phys.:Condens. Matter 29 465901 (2017);
         "P. Giannozzi et al., J. Chem. Phys. 152 154105 (2020);
          URL http://www.quantum-espresso.org", 
     in publications or presentations arising from this work. More details at
     http://www.quantum-espresso.org/quote

     Parallel version (MPI), running on     1 processors

     MPI processes distributed on     1 nodes
     796 MiB available memory on the printing compute node when the environment starts

     Reading input from 03-nacl-ph-epsil.in
      Title line not specified: using 'default'.

     Reading xml data from directory:

     ./nacl.save/

     IMPORTANT: XC functional enforced from input :
     Exchange-correlation= PBE
                           (   1   4   3   4   0   0   0)
     Any further DFT definition will be discarded
     Please, verify this is what you really want


     G-vector sticks info
     --------------------
     sticks:   dense  smooth     PW     G-vecs:    dense   smooth      PW
     Sum        2407     805    241                77665    15009    2445

     Using Slab Decomposition


     negative rho (up, down):  1.445E-02 0.000E+00
     Reading collected, re-writing distributed wavefunctions

     Calculation of q =    0.0000000   0.0000000   0.0000000

     default                                                                    

     bravais-lattice index     =            2
     lattice parameter (alat)  =      10.7725  a.u.
     unit-cell volume          =     312.5286 (a.u.)^3
     number of atoms/cell      =            2
     number of atomic types    =            2
     kinetic-energy cut-off    =      50.0000  Ry
     charge density cut-off    =     600.0000  Ry
     convergence threshold     =      1.0E-16
     beta                      =       0.7000
     number of iterations used =            4
     Exchange-correlation= PBE
                           (   1   4   3   4   0   0   0)


     celldm(1)=   10.77250  celldm(2)=    0.00000  celldm(3)=    0.00000
     celldm(4)=    0.00000  celldm(5)=    0.00000  celldm(6)=    0.00000

     crystal axes: (cart. coord. in units of alat)
               a(1) = ( -0.5000  0.0000  0.5000 )  
               a(2) = (  0.0000  0.5000  0.5000 )  
               a(3) = ( -0.5000  0.5000  0.0000 )  

     reciprocal axes: (cart. coord. in units 2 pi/alat)
               b(1) = ( -1.0000 -1.0000  1.0000 )  
               b(2) = (  1.0000  1.0000  1.0000 )  
               b(3) = ( -1.0000  1.0000 -1.0000 )  


     Atoms inside the unit cell: 

     Cartesian axes

     site n.  atom      mass           positions (alat units)
        1     Na  22.9898   tau(    1) = (    0.00000    0.00000    0.00000  )
        2     Cl  35.4530   tau(    2) = (   -0.50000    0.50000    0.50000  )

     Computing dynamical matrix for 
                    q = (   0.0000000   0.0000000   0.0000000 )

     49 Sym.Ops. (with q -> -q+G )


     G cutoff = 1763.6998  (  77665 G-vectors)     FFT grid: ( 60, 60, 60)
     G cutoff =  587.8999  (  15009 G-vectors)  smooth grid: ( 36, 36, 36)
     number of k points=    10
                       cart. coord. in units 2pi/alat
        k(    1) = (   0.0000000   0.0000000   0.0000000), wk =   0.0160000
        k(    2) = (  -0.2000000   0.2000000  -0.2000000), wk =   0.1280000
        k(    3) = (  -0.4000000   0.4000000  -0.4000000), wk =   0.1280000
        k(    4) = (   0.0000000   0.4000000   0.0000000), wk =   0.0960000
        k(    5) = (  -0.2000000   0.6000000  -0.2000000), wk =   0.3840000
        k(    6) = (   0.6000000  -0.2000000   0.6000000), wk =   0.3840000
        k(    7) = (   0.4000000   0.0000000   0.4000000), wk =   0.1920000
        k(    8) = (   0.0000000   0.8000000   0.0000000), wk =   0.0960000
        k(    9) = (   0.8000000   0.0000000   0.8000000), wk =   0.1920000
        k(   10) = (   0.6000000  -0.2000000   1.0000000), wk =   0.3840000

     PseudoPot. # 1 for Na read from file:
     /home/user/pseudo_dir/na_pbe_v1.5.uspp.F.UPF
     MD5 check sum: 44600605ef58000f06b90626533354dc
     Pseudo is Ultrasoft, Zval =  9.0
     Generated by new atomic code, or converted to UPF format
     Using radial grid of  819 points,  5 beta functions with: 
                l(1) =   0
                l(2) =   0
                l(3) =   1
                l(4) =   1
                l(5) =   2
     Q(r) pseudized with  8 coefficients,  rinner =    1.250   1.250   1.250
                                                       1.250   1.250

     PseudoPot. # 2 for Cl read from file:
     /home/user/pseudo_dir/cl_pbe_v1.4.uspp.F.UPF
     MD5 check sum: fc6f6913ecf08c9257cb748ef0700058
     Pseudo is Ultrasoft + core correction, Zval =  7.0
     Generated by new atomic code, or converted to UPF format
     Using radial grid of  909 points,  6 beta functions with: 
                l(1) =   0
                l(2) =   0
                l(3) =   1
                l(4) =   1
                l(5) =   2
                l(6) =   2
     Q(r) pseudized with  8 coefficients,  rinner =    1.300   1.300   1.300
                                                       1.300   1.300

     Mode symmetry, O_h (m-3m)  point group:


     Electric field:
     Dielectric constant
     Born effective charges as d Force / d E


     Atomic displacements:
     There are    2 irreducible representations

     Representation     1      3 modes -  To be done

     Representation     2      3 modes -  To be done



     Alpha used in Ewald sum =   2.8000

     negative rho (up, down):  1.445E-02 0.000E+00
     PHONON       :     13.40s CPU     13.72s WALL


     Electric Fields Calculation

      iter #   1 total cpu time :    31.1 secs   av.it.:   5.6
      thresh= 1.000E-02 alpha_mix =  0.700 |ddv_scf|^2 =  2.491E-08

      iter #   2 total cpu time :    40.6 secs   av.it.:  13.3
      thresh= 1.578E-05 alpha_mix =  0.700 |ddv_scf|^2 =  3.248E-09

      iter #   3 total cpu time :    50.0 secs   av.it.:  11.9
      thresh= 5.699E-06 alpha_mix =  0.700 |ddv_scf|^2 =  2.227E-10

      iter #   4 total cpu time :    59.8 secs   av.it.:  12.4
      thresh= 1.492E-06 alpha_mix =  0.700 |ddv_scf|^2 =  2.093E-13

      iter #   5 total cpu time :    71.9 secs   av.it.:  13.8
      thresh= 4.575E-08 alpha_mix =  0.700 |ddv_scf|^2 =  9.665E-16

      iter #   6 total cpu time :    84.1 secs   av.it.:  12.5
      thresh= 3.109E-09 alpha_mix =  0.700 |ddv_scf|^2 =  4.539E-17

     End of electric fields calculation

          Dielectric constant in cartesian axis 

          (       2.492496658       0.000000000       0.000000000 )
          (       0.000000000       2.492496658       0.000000000 )
          (      -0.000000000       0.000000000       2.492496658 )

          Effective charges (d Force / dE) in cartesian axis without acoustic sum rule applied (asr)

           atom      1   Na Mean Z*:        1.11209
      Ex  (        1.11209       -0.00000        0.00000 )
      Ey  (       -0.00000        1.11209       -0.00000 )
      Ez  (        0.00000        0.00000        1.11209 )
           atom      2   Cl Mean Z*:       -1.11258
      Ex  (       -1.11258        0.00000        0.00000 )
      Ey  (        0.00000       -1.11258        0.00000 )
      Ez  (        0.00000        0.00000       -1.11258 )

          Effective charges Sum: Mean:       -0.00048
             -0.00048        0.00000        0.00000
              0.00000       -0.00048        0.00000
              0.00000        0.00000       -0.00048

          Effective charges (d Force / dE) in cartesian axis with asr applied: 
           atom      1   Na Mean Z*:        1.11234
      E*x (        1.11234       -0.00000        0.00000 )
      E*y (       -0.00000        1.11234       -0.00000 )
      E*z (        0.00000       -0.00000        1.11234 )
           atom      2   Cl Mean Z*:       -1.11234
      E*x (       -1.11234        0.00000        0.00000 )
      E*y (        0.00000       -1.11234        0.00000 )
      E*z (       -0.00000        0.00000       -1.11234 )


     Representation #   1 modes #   1   2   3

     Self-consistent Calculation

      iter #   1 total cpu time :   100.6 secs   av.it.:   6.2
      thresh= 1.000E-02 alpha_mix =  0.700 |ddv_scf|^2 =  9.228E-08

      iter #   2 total cpu time :   113.2 secs   av.it.:  14.2
      thresh= 3.038E-05 alpha_mix =  0.700 |ddv_scf|^2 =  1.004E-08

      iter #   3 total cpu time :   124.8 secs   av.it.:  12.9
      thresh= 1.002E-05 alpha_mix =  0.700 |ddv_scf|^2 =  1.062E-10

      iter #   4 total cpu time :   136.9 secs   av.it.:  14.1
      thresh= 1.031E-06 alpha_mix =  0.700 |ddv_scf|^2 =  8.187E-13

      iter #   5 total cpu time :   149.2 secs   av.it.:  13.9
      thresh= 9.048E-08 alpha_mix =  0.700 |ddv_scf|^2 =  3.366E-15

      iter #   6 total cpu time :   161.1 secs   av.it.:  13.6
      thresh= 5.801E-09 alpha_mix =  0.700 |ddv_scf|^2 =  4.752E-17

     End of self-consistent calculation

     Convergence has been achieved 


     Representation #   2 modes #   4   5   6

     Self-consistent Calculation

      iter #   1 total cpu time :   170.3 secs   av.it.:   6.5
      thresh= 1.000E-02 alpha_mix =  0.700 |ddv_scf|^2 =  3.784E-07

      iter #   2 total cpu time :   182.3 secs   av.it.:  13.4
      thresh= 6.151E-05 alpha_mix =  0.700 |ddv_scf|^2 =  7.558E-09

      iter #   3 total cpu time :   194.8 secs   av.it.:  14.7
      thresh= 8.693E-06 alpha_mix =  0.700 |ddv_scf|^2 =  6.454E-10

      iter #   4 total cpu time :   206.2 secs   av.it.:  13.5
      thresh= 2.540E-06 alpha_mix =  0.700 |ddv_scf|^2 =  3.013E-11

      iter #   5 total cpu time :   216.8 secs   av.it.:  13.9
      thresh= 5.489E-07 alpha_mix =  0.700 |ddv_scf|^2 =  1.541E-13

      iter #   6 total cpu time :   227.6 secs   av.it.:  14.4
      thresh= 3.926E-08 alpha_mix =  0.700 |ddv_scf|^2 =  3.567E-16

      iter #   7 total cpu time :   238.1 secs   av.it.:  13.0
      thresh= 1.889E-09 alpha_mix =  0.700 |ddv_scf|^2 =  3.741E-17

     End of self-consistent calculation

     Convergence has been achieved 

     Number of q in the star =    1
     List of q in the star:
          1   0.000000000   0.000000000   0.000000000

          Dielectric constant in cartesian axis 

          (       2.492496658       0.000000000       0.000000000 )
          (       0.000000000       2.492496658       0.000000000 )
          (      -0.000000000       0.000000000       2.492496658 )

          Effective charges (d Force / dE) in cartesian axis without acoustic sum rule applied (asr)

           atom      1   Na Mean Z*:        1.11209
      Ex  (        1.11209       -0.00000        0.00000 )
      Ey  (       -0.00000        1.11209       -0.00000 )
      Ez  (        0.00000        0.00000        1.11209 )
           atom      2   Cl Mean Z*:       -1.11258
      Ex  (       -1.11258        0.00000        0.00000 )
      Ey  (        0.00000       -1.11258        0.00000 )
      Ez  (        0.00000        0.00000       -1.11258 )

          Effective charges Sum: Mean:       -0.00048
             -0.00048        0.00000        0.00000
              0.00000       -0.00048        0.00000
              0.00000        0.00000       -0.00048

          Effective charges (d Force / dE) in cartesian axis with asr applied: 
           atom      1   Na Mean Z*:        1.11234
      E*x (        1.11234       -0.00000        0.00000 )
      E*y (       -0.00000        1.11234       -0.00000 )
      E*z (        0.00000       -0.00000        1.11234 )
           atom      2   Cl Mean Z*:       -1.11234
      E*x (       -1.11234        0.00000        0.00000 )
      E*y (        0.00000       -1.11234        0.00000 )
      E*z (       -0.00000        0.00000       -1.11234 )

     Diagonalizing the dynamical matrix

     q = (    0.000000000   0.000000000   0.000000000 ) 

 **************************************************************************
     freq (    1) =      -0.201128 [THz] =      -6.708924 [cm-1]
     freq (    2) =      -0.201128 [THz] =      -6.708924 [cm-1]
     freq (    3) =      -0.201128 [THz] =      -6.708924 [cm-1]
     freq (    4) =       4.549056 [THz] =     151.740167 [cm-1]
     freq (    5) =       4.549056 [THz] =     151.740167 [cm-1]
     freq (    6) =       4.549056 [THz] =     151.740167 [cm-1]
 **************************************************************************

     Mode symmetry, O_h (m-3m)  point group:

     freq (   1-   3) =         -6.7  [cm-1]   --> T_1u G_15  G_4- I  
     freq (   4-   6) =        151.7  [cm-1]   --> T_1u G_15  G_4- I  

     PHONON       :   3m53.80s CPU   3m58.79s WALL

     INITIALIZATION: 
     phq_setup    :      0.43s CPU      0.49s WALL (       1 calls)
     phq_init     :     11.24s CPU     11.30s WALL (       1 calls)

     phq_init     :     11.24s CPU     11.30s WALL (       1 calls)
     set_drhoc    :      2.10s CPU      2.11s WALL (       3 calls)
     init_vloc    :      0.01s CPU      0.01s WALL (       1 calls)
     init_us_1    :      0.73s CPU      0.73s WALL (       1 calls)
     init_us_2    :      0.25s CPU      0.26s WALL (     320 calls)
     newd         :      0.30s CPU      0.45s WALL (       1 calls)
     dvanqq       :      5.42s CPU      5.42s WALL (       1 calls)
     drho         :      2.05s CPU      2.09s WALL (       1 calls)
     cmpt_qdipol  :      0.00s CPU      0.00s WALL (       1 calls)

     DIELECTRIC CONSTANT AND EFFECTIVE CHARGES:
     solve_e      :     68.91s CPU     70.35s WALL (       1 calls)
     dielec       :      0.01s CPU      0.01s WALL (       1 calls)
     zstar_eu     :      7.29s CPU      7.74s WALL (       1 calls)

     DYNAMICAL MATRIX:
     dynmat0      :      1.72s CPU      1.74s WALL (       1 calls)
     phqscf       :    144.19s CPU    146.93s WALL (       1 calls)
     dynmatrix    :      0.00s CPU      0.01s WALL (       1 calls)

     phqscf       :    144.19s CPU    146.93s WALL (       1 calls)
     solve_linter :    143.92s CPU    146.61s WALL (       2 calls)
     drhodv       :      0.27s CPU      0.28s WALL (       2 calls)

     dynmat0      :      1.72s CPU      1.74s WALL (       1 calls)
     dynmat_us    :      0.12s CPU      0.12s WALL (       1 calls)
     d2ionq       :      0.04s CPU      0.04s WALL (       1 calls)
     dynmatcc     :      1.57s CPU      1.58s WALL (       1 calls)

     dynmat_us    :      0.12s CPU      0.12s WALL (       1 calls)
     addusdynmat  :      0.00s CPU      0.00s WALL (       1 calls)

     phqscf       :    144.19s CPU    146.93s WALL (       1 calls)
     solve_linter :    143.92s CPU    146.61s WALL (       2 calls)

     solve_linter :    143.92s CPU    146.61s WALL (       2 calls)
     dvqpsi_us    :      1.88s CPU      1.90s WALL (     120 calls)
     sth_kernel   :    135.12s CPU    136.64s WALL (      19 calls)
     apply_dpot_b :      5.80s CPU      5.92s WALL (     480 calls)
     ortho        :      1.15s CPU      1.18s WALL (     600 calls)
     cgsolve      :    130.27s CPU    131.51s WALL (     600 calls)
     incdrhoscf   :      8.41s CPU      8.58s WALL (     600 calls)
     addusddens   :     10.74s CPU     10.80s WALL (      15 calls)
     dv_of_drho   :      6.39s CPU      7.14s WALL (      60 calls)
     mix_pot      :      0.67s CPU      1.68s WALL (      19 calls)
     psymdvscf    :     16.05s CPU     16.11s WALL (      13 calls)
     newdq        :     23.16s CPU     23.34s WALL (      19 calls)
     adddvscf     :      0.38s CPU      0.39s WALL (     480 calls)
     drhodvus     :      0.03s CPU      0.05s WALL (       2 calls)

     dvqpsi_us    :      1.88s CPU      1.90s WALL (     120 calls)
     dvqpsi_us_on :      0.27s CPU      0.27s WALL (     120 calls)

     cgsolve      :    130.27s CPU    131.51s WALL (     600 calls)
     ch_psi       :    127.11s CPU    128.31s WALL (   10569 calls)

     ch_psi       :    127.11s CPU    128.31s WALL (   10569 calls)
     h_psi        :    105.12s CPU    106.12s WALL (   10569 calls)
     last         :     16.01s CPU     16.17s WALL (   10569 calls)

     h_psi        :    105.12s CPU    106.12s WALL (   10569 calls)
     add_vuspsi   :      5.17s CPU      5.24s WALL (   10569 calls)

     incdrhoscf   :      8.41s CPU      8.58s WALL (     600 calls)
     addusdbec    :      0.58s CPU      0.59s WALL (     660 calls)

     drhodvus     :      0.03s CPU      0.05s WALL (       2 calls)

      General routines
     calbec       :     15.63s CPU     15.85s WALL (   24238 calls)
     fft          :      7.34s CPU      7.41s WALL (    1223 calls)
     ffts         :      0.28s CPU      0.28s WALL (     262 calls)
     fftw         :     96.77s CPU     97.99s WALL (  148026 calls)
     davcio       :      0.35s CPU      1.31s WALL (    2999 calls)
     write_rec    :      0.02s CPU      0.34s WALL (      21 calls)


     PHONON       :   3m53.81s CPU   3m58.79s WALL


   This run was terminated on:   1:11:46  10Feb2022            

=------------------------------------------------------------------------------=
   JOB DONE.
=------------------------------------------------------------------------------=
