
     Program PWSCF v.7.0 starts on  2Feb2022 at  9:45: 2 

     This program is part of the open-source Quantum ESPRESSO suite
     for quantum simulation of materials; please cite
         "P. Giannozzi et al., J. Phys.:Condens. Matter 21 395502 (2009);
         "P. Giannozzi et al., J. Phys.:Condens. Matter 29 465901 (2017);
         "P. Giannozzi et al., J. Chem. Phys. 152 154105 (2020);
          URL http://www.quantum-espresso.org", 
     in publications or presentations arising from this work. More details at
     http://www.quantum-espresso.org/quote

     Parallel version (MPI), running on     1 processors

     MPI processes distributed on     1 nodes
     249 MiB available memory on the printing compute node when the environment starts

     Reading input from 01-graphite-lda.in

     Current dimensions of program PWSCF are:
     Max number of different atomic species (ntypx) = 10
     Max number of k-points (npk) =  40000
     Max angular momentum in pseudopotentials (lmaxx) =  4
     file C.pz-rrkjus.UPF: wavefunction(s)  2S renormalized

     Subspace diagonalization in iterative solution of the eigenvalue problem:
     a serial algorithm will be used


     G-vector sticks info
     --------------------
     sticks:   dense  smooth     PW     G-vecs:    dense   smooth      PW
     Sum         361     187     61                14339     5053    1045

     Using Slab Decomposition



     bravais-lattice index     =            4
     lattice parameter (alat)  =       4.6601  a.u.
     unit-cell volume          =     227.8448 (a.u.)^3
     number of atoms/cell      =            4
     number of atomic types    =            1
     number of electrons       =        16.00
     number of Kohn-Sham states=           12
     kinetic-energy cutoff     =      30.0000  Ry
     charge density cutoff     =     240.0000  Ry
     scf convergence threshold =      1.0E-09
     mixing beta               =       0.3000
     number of iterations used =            8  plain     mixing
     energy convergence thresh.=      1.0E-04
     force convergence thresh. =      1.0E-03
     press convergence thresh. =      5.0E-01
     Exchange-correlation= SLA  PZ   NOGX NOGC
                           (   1   1   0   0   0   0   0)
     nstep                     =           50


     celldm(1)=   4.660065  celldm(2)=   0.000000  celldm(3)=   2.599757
     celldm(4)=   0.000000  celldm(5)=   0.000000  celldm(6)=   0.000000

     crystal axes: (cart. coord. in units of alat)
               a(1) = (   1.000000   0.000000   0.000000 )  
               a(2) = (  -0.500000   0.866025   0.000000 )  
               a(3) = (   0.000000   0.000000   2.599757 )  

     reciprocal axes: (cart. coord. in units 2 pi/alat)
               b(1) = (  1.000000  0.577350 -0.000000 )  
               b(2) = (  0.000000  1.154701  0.000000 )  
               b(3) = (  0.000000 -0.000000  0.384651 )  


     PseudoPot. # 1 for C  read from file:
     /home/user/pseudo_dir/C.pz-rrkjus.UPF
     MD5 check sum: f3d00d2fdf13a37a7282bbbab8ba99e3
     Pseudo is Ultrasoft, Zval =  4.0
     Generated by new atomic code, or converted to UPF format
     Using radial grid of 1425 points,  4 beta functions with: 
                l(1) =   0
                l(2) =   0
                l(3) =   1
                l(4) =   1
     Q(r) pseudized with 0 coefficients 


     atomic species   valence    mass     pseudopotential
        C              4.00    12.01100     C ( 1.00)

     24 Sym. Ops., with inversion, found (12 have fractional translation)


                                    s                        frac. trans.

      isym =  1     identity                                     

 cryst.   s( 1) = (     1          0          0      )
                  (     0          1          0      )
                  (     0          0          1      )

 cart.    s( 1) = (  1.0000000  0.0000000  0.0000000 )
                  (  0.0000000  1.0000000  0.0000000 )
                  (  0.0000000  0.0000000  1.0000000 )


      isym =  2     180 deg rotation - cart. axis [0,0,1]        

 cryst.   s( 2) = (    -1          0          0      )    f =(  0.0000000 )
                  (     0         -1          0      )       (  0.0000000 )
                  (     0          0          1      )       (  0.5000000 )

 cart.    s( 2) = ( -1.0000000  0.0000000  0.0000000 )    f =(  0.0000000 )
                  (  0.0000000 -1.0000000  0.0000000 )       (  0.0000000 )
                  (  0.0000000  0.0000000  1.0000000 )       (  1.2998783 )


      isym =  3     180 deg rotation - cart. axis [0,1,0]        

 cryst.   s( 3) = (    -1          0          0      )    f =(  0.0000000 )
                  (     1          1          0      )       (  0.0000000 )
                  (     0          0         -1      )       (  0.5000000 )

 cart.    s( 3) = ( -1.0000000  0.0000000  0.0000000 )    f =(  0.0000000 )
                  (  0.0000000  1.0000000  0.0000000 )       (  0.0000000 )
                  (  0.0000000  0.0000000 -1.0000000 )       (  1.2998783 )


      isym =  4     180 deg rotation - cart. axis [1,0,0]        

 cryst.   s( 4) = (     1          0          0      )
                  (    -1         -1          0      )
                  (     0          0         -1      )

 cart.    s( 4) = (  1.0000000  0.0000000  0.0000000 )
                  (  0.0000000 -1.0000000  0.0000000 )
                  (  0.0000000  0.0000000 -1.0000000 )


      isym =  5      60 deg rotation - cryst. axis [0,0,1]       

 cryst.   s( 5) = (     1          1          0      )    f =(  0.0000000 )
                  (    -1          0          0      )       (  0.0000000 )
                  (     0          0          1      )       (  0.5000000 )

 cart.    s( 5) = (  0.5000000 -0.8660254  0.0000000 )    f =(  0.0000000 )
                  (  0.8660254  0.5000000  0.0000000 )       (  0.0000000 )
                  (  0.0000000  0.0000000  1.0000000 )       (  1.2998783 )


      isym =  6      60 deg rotation - cryst. axis [0,0,-1]      

 cryst.   s( 6) = (     0         -1          0      )    f =(  0.0000000 )
                  (     1          1          0      )       (  0.0000000 )
                  (     0          0          1      )       (  0.5000000 )

 cart.    s( 6) = (  0.5000000  0.8660254  0.0000000 )    f =(  0.0000000 )
                  ( -0.8660254  0.5000000  0.0000000 )       (  0.0000000 )
                  (  0.0000000  0.0000000  1.0000000 )       (  1.2998783 )


      isym =  7     120 deg rotation - cryst. axis [0,0,1]       

 cryst.   s( 7) = (     0          1          0      )
                  (    -1         -1          0      )
                  (     0          0          1      )

 cart.    s( 7) = ( -0.5000000 -0.8660254  0.0000000 )
                  (  0.8660254 -0.5000000  0.0000000 )
                  (  0.0000000  0.0000000  1.0000000 )


      isym =  8     120 deg rotation - cryst. axis [0,0,-1]      

 cryst.   s( 8) = (    -1         -1          0      )
                  (     1          0          0      )
                  (     0          0          1      )

 cart.    s( 8) = ( -0.5000000  0.8660254  0.0000000 )
                  ( -0.8660254 -0.5000000  0.0000000 )
                  (  0.0000000  0.0000000  1.0000000 )


      isym =  9     180 deg rotation - cryst. axis [1,-1,0]      

 cryst.   s( 9) = (     0         -1          0      )    f =(  0.0000000 )
                  (    -1          0          0      )       (  0.0000000 )
                  (     0          0         -1      )       (  0.5000000 )

 cart.    s( 9) = (  0.5000000 -0.8660254  0.0000000 )    f =(  0.0000000 )
                  ( -0.8660254 -0.5000000  0.0000000 )       (  0.0000000 )
                  (  0.0000000  0.0000000 -1.0000000 )       (  1.2998783 )


      isym = 10     180 deg rotation - cryst. axis [2,1,0]       

 cryst.   s(10) = (     1          1          0      )    f =(  0.0000000 )
                  (     0         -1          0      )       (  0.0000000 )
                  (     0          0         -1      )       (  0.5000000 )

 cart.    s(10) = (  0.5000000  0.8660254  0.0000000 )    f =(  0.0000000 )
                  (  0.8660254 -0.5000000  0.0000000 )       (  0.0000000 )
                  (  0.0000000  0.0000000 -1.0000000 )       (  1.2998783 )


      isym = 11     180 deg rotation - cryst. axis [0,1,0]       

 cryst.   s(11) = (    -1         -1          0      )
                  (     0          1          0      )
                  (     0          0         -1      )

 cart.    s(11) = ( -0.5000000 -0.8660254  0.0000000 )
                  ( -0.8660254  0.5000000  0.0000000 )
                  (  0.0000000  0.0000000 -1.0000000 )


      isym = 12     180 deg rotation - cryst. axis [1,1,0]       

 cryst.   s(12) = (     0          1          0      )
                  (     1          0          0      )
                  (     0          0         -1      )

 cart.    s(12) = ( -0.5000000  0.8660254  0.0000000 )
                  (  0.8660254  0.5000000  0.0000000 )
                  (  0.0000000  0.0000000 -1.0000000 )


      isym = 13     inversion                                    

 cryst.   s(13) = (    -1          0          0      )
                  (     0         -1          0      )
                  (     0          0         -1      )

 cart.    s(13) = ( -1.0000000  0.0000000  0.0000000 )
                  (  0.0000000 -1.0000000  0.0000000 )
                  (  0.0000000  0.0000000 -1.0000000 )


      isym = 14     inv. 180 deg rotation - cart. axis [0,0,1]   

 cryst.   s(14) = (     1          0          0      )    f =(  0.0000000 )
                  (     0          1          0      )       (  0.0000000 )
                  (     0          0         -1      )       (  0.5000000 )

 cart.    s(14) = (  1.0000000  0.0000000  0.0000000 )    f =(  0.0000000 )
                  (  0.0000000  1.0000000  0.0000000 )       (  0.0000000 )
                  (  0.0000000  0.0000000 -1.0000000 )       (  1.2998783 )


      isym = 15     inv. 180 deg rotation - cart. axis [0,1,0]   

 cryst.   s(15) = (     1          0          0      )    f =(  0.0000000 )
                  (    -1         -1          0      )       (  0.0000000 )
                  (     0          0          1      )       (  0.5000000 )

 cart.    s(15) = (  1.0000000  0.0000000  0.0000000 )    f =(  0.0000000 )
                  (  0.0000000 -1.0000000  0.0000000 )       (  0.0000000 )
                  (  0.0000000  0.0000000  1.0000000 )       (  1.2998783 )


      isym = 16     inv. 180 deg rotation - cart. axis [1,0,0]   

 cryst.   s(16) = (    -1          0          0      )
                  (     1          1          0      )
                  (     0          0          1      )

 cart.    s(16) = ( -1.0000000  0.0000000  0.0000000 )
                  (  0.0000000  1.0000000  0.0000000 )
                  (  0.0000000  0.0000000  1.0000000 )


      isym = 17     inv.  60 deg rotation - cryst. axis [0,0,1]  

 cryst.   s(17) = (    -1         -1          0      )    f =(  0.0000000 )
                  (     1          0          0      )       (  0.0000000 )
                  (     0          0         -1      )       (  0.5000000 )

 cart.    s(17) = ( -0.5000000  0.8660254  0.0000000 )    f =(  0.0000000 )
                  ( -0.8660254 -0.5000000  0.0000000 )       (  0.0000000 )
                  (  0.0000000  0.0000000 -1.0000000 )       (  1.2998783 )


      isym = 18     inv.  60 deg rotation - cryst. axis [0,0,-1] 

 cryst.   s(18) = (     0          1          0      )    f =(  0.0000000 )
                  (    -1         -1          0      )       (  0.0000000 )
                  (     0          0         -1      )       (  0.5000000 )

 cart.    s(18) = ( -0.5000000 -0.8660254  0.0000000 )    f =(  0.0000000 )
                  (  0.8660254 -0.5000000  0.0000000 )       (  0.0000000 )
                  (  0.0000000  0.0000000 -1.0000000 )       (  1.2998783 )


      isym = 19     inv. 120 deg rotation - cryst. axis [0,0,1]  

 cryst.   s(19) = (     0         -1          0      )
                  (     1          1          0      )
                  (     0          0         -1      )

 cart.    s(19) = (  0.5000000  0.8660254  0.0000000 )
                  ( -0.8660254  0.5000000  0.0000000 )
                  (  0.0000000  0.0000000 -1.0000000 )


      isym = 20     inv. 120 deg rotation - cryst. axis [0,0,-1] 

 cryst.   s(20) = (     1          1          0      )
                  (    -1          0          0      )
                  (     0          0         -1      )

 cart.    s(20) = (  0.5000000 -0.8660254  0.0000000 )
                  (  0.8660254  0.5000000  0.0000000 )
                  (  0.0000000  0.0000000 -1.0000000 )


      isym = 21     inv. 180 deg rotation - cryst. axis [1,-1,0] 

 cryst.   s(21) = (     0          1          0      )    f =(  0.0000000 )
                  (     1          0          0      )       (  0.0000000 )
                  (     0          0          1      )       (  0.5000000 )

 cart.    s(21) = ( -0.5000000  0.8660254  0.0000000 )    f =(  0.0000000 )
                  (  0.8660254  0.5000000  0.0000000 )       (  0.0000000 )
                  (  0.0000000  0.0000000  1.0000000 )       (  1.2998783 )


      isym = 22     inv. 180 deg rotation - cryst. axis [2,1,0]  

 cryst.   s(22) = (    -1         -1          0      )    f =(  0.0000000 )
                  (     0          1          0      )       (  0.0000000 )
                  (     0          0          1      )       (  0.5000000 )

 cart.    s(22) = ( -0.5000000 -0.8660254  0.0000000 )    f =(  0.0000000 )
                  ( -0.8660254  0.5000000  0.0000000 )       (  0.0000000 )
                  (  0.0000000  0.0000000  1.0000000 )       (  1.2998783 )


      isym = 23     inv. 180 deg rotation - cryst. axis [0,1,0]  

 cryst.   s(23) = (     1          1          0      )
                  (     0         -1          0      )
                  (     0          0          1      )

 cart.    s(23) = (  0.5000000  0.8660254  0.0000000 )
                  (  0.8660254 -0.5000000  0.0000000 )
                  (  0.0000000  0.0000000  1.0000000 )


      isym = 24     inv. 180 deg rotation - cryst. axis [1,1,0]  

 cryst.   s(24) = (     0         -1          0      )
                  (    -1          0          0      )
                  (     0          0          1      )

 cart.    s(24) = (  0.5000000 -0.8660254  0.0000000 )
                  ( -0.8660254 -0.5000000  0.0000000 )
                  (  0.0000000  0.0000000  1.0000000 )


     point group D_6h(6/mmm)
     there are 12 classes
     the character table:

       E     2C6   2C3   C2    3C2'  3C2'' i     2S3   2S6   s_h   3s_d  3s_v 
A_1g   1.00  1.00  1.00  1.00  1.00  1.00  1.00  1.00  1.00  1.00  1.00  1.00
A_2g   1.00  1.00  1.00  1.00 -1.00 -1.00  1.00  1.00  1.00  1.00 -1.00 -1.00
B_1g   1.00 -1.00  1.00 -1.00  1.00 -1.00  1.00 -1.00  1.00 -1.00  1.00 -1.00
B_2g   1.00 -1.00  1.00 -1.00 -1.00  1.00  1.00 -1.00  1.00 -1.00 -1.00  1.00
E_1g   2.00  1.00 -1.00 -2.00  0.00  0.00  2.00  1.00 -1.00 -2.00  0.00  0.00
E_2g   2.00 -1.00 -1.00  2.00  0.00  0.00  2.00 -1.00 -1.00  2.00  0.00  0.00
A_1u   1.00  1.00  1.00  1.00  1.00  1.00 -1.00 -1.00 -1.00 -1.00 -1.00 -1.00
A_2u   1.00  1.00  1.00  1.00 -1.00 -1.00 -1.00 -1.00 -1.00 -1.00  1.00  1.00
B_1u   1.00 -1.00  1.00 -1.00  1.00 -1.00 -1.00  1.00 -1.00  1.00 -1.00  1.00
B_2u   1.00 -1.00  1.00 -1.00 -1.00  1.00 -1.00  1.00 -1.00  1.00  1.00 -1.00
E_1u   2.00  1.00 -1.00 -2.00  0.00  0.00 -2.00 -1.00  1.00  2.00  0.00  0.00
E_2u   2.00 -1.00 -1.00  2.00  0.00  0.00 -2.00  1.00  1.00 -2.00  0.00  0.00

     the symmetry operations in each class and the name of the first element:

     E        1
          identity                                               
     2C6      5    6
           60 deg rotation - cryst. axis [0,0,1]                 
     2C3      7    8
          120 deg rotation - cryst. axis [0,0,1]                 
     C2       2
          180 deg rotation - cart. axis [0,0,1]                  
     3C2'     4   12   11
          180 deg rotation - cart. axis [1,0,0]                  
     3C2''    3    9   10
          180 deg rotation - cart. axis [0,1,0]                  
     i       13
          inversion                                              
     2S3     17   18
          inv.  60 deg rotation - cryst. axis [0,0,1]            
     2S6     19   20
          inv. 120 deg rotation - cryst. axis [0,0,1]            
     s_h     14
          inv. 180 deg rotation - cart. axis [0,0,1]             
     3s_d    16   24   23
          inv. 180 deg rotation - cart. axis [1,0,0]             
     3s_v    15   21   22
          inv. 180 deg rotation - cart. axis [0,1,0]             

   Cartesian axes

     site n.     atom                  positions (alat units)
         1           C   tau(   1) = (  -0.5000000   0.8660254   1.9498175  )
         2           C   tau(   2) = (   0.5000005   0.2886748   1.9498175  )
         3           C   tau(   3) = (  -0.5000000   0.8660254   0.6499392  )
         4           C   tau(   4) = (  -0.0000005   0.5773506   0.6499392  )

   Crystallographic axes

     site n.     atom                  positions (cryst. coord.)
         1           C   tau(   1) = (  0.0000000  1.0000000  0.7500000  )
         2           C   tau(   2) = (  0.6666670  0.3333330  0.7500000  )
         3           C   tau(   3) = (  0.0000000  1.0000000  0.2500000  )
         4           C   tau(   4) = (  0.3333330  0.6666670  0.2500000  )

     number of k points=     6  Marzari-Vanderbilt smearing, width (Ry)=  0.0200
                       cart. coord. in units 2pi/alat
        k(    1) = (   0.1250000   0.2165064   0.0961628), wk =   0.2500000
        k(    2) = (   0.1250000   0.5051815   0.0961628), wk =   0.5000000
        k(    3) = (   0.1250000  -0.3608439   0.0961628), wk =   0.5000000
        k(    4) = (   0.1250000  -0.0721688   0.0961628), wk =   0.2500000
        k(    5) = (   0.3750000   0.6495191   0.0961628), wk =   0.2500000
        k(    6) = (   0.3750000  -0.2165064   0.0961628), wk =   0.2500000

                       cryst. coord.
        k(    1) = (   0.1250000   0.1250000   0.2500000), wk =   0.2500000
        k(    2) = (   0.1250000   0.3750000   0.2500000), wk =   0.5000000
        k(    3) = (   0.1250000  -0.3750000   0.2500000), wk =   0.5000000
        k(    4) = (   0.1250000  -0.1250000   0.2500000), wk =   0.2500000
        k(    5) = (   0.3750000   0.3750000   0.2500000), wk =   0.2500000
        k(    6) = (   0.3750000  -0.3750000   0.2500000), wk =   0.2500000

     Dense  grid:    14339 G-vectors     FFT dimensions: (  24,  24,  60)

     Smooth grid:     5053 G-vectors     FFT dimensions: (  18,  18,  48)

     Dynamical RAM for                 wfc:       0.12 MB

     Dynamical RAM for     wfc (w. buffer):       0.81 MB

     Dynamical RAM for           str. fact:       0.22 MB

     Dynamical RAM for           local pot:       0.00 MB

     Dynamical RAM for          nlocal pot:       0.31 MB

     Dynamical RAM for                qrad:       0.71 MB

     Dynamical RAM for          rho,v,vnew:       1.45 MB

     Dynamical RAM for               rhoin:       0.48 MB

     Dynamical RAM for            rho*nmix:       3.50 MB

     Dynamical RAM for           G-vectors:       0.86 MB

     Dynamical RAM for          h,s,v(r/c):       0.03 MB

     Dynamical RAM for          <psi|beta>:       0.01 MB

     Dynamical RAM for                 psi:       0.23 MB

     Dynamical RAM for                hpsi:       0.23 MB

     Dynamical RAM for                spsi:       0.23 MB

     Dynamical RAM for      wfcinit/wfcrot:       0.31 MB

     Dynamical RAM for           addusdens:      10.28 MB

     Dynamical RAM for          addusforce:      11.71 MB

     Dynamical RAM for         addusstress:      10.94 MB

     Estimated static dynamical RAM per process >       6.59 MB

     Estimated max dynamical RAM per process >      21.80 MB

     Initial potential from superposition of free atoms

     starting charge      15.9998, renormalised to      16.0000
     Starting wfcs are   16 randomized atomic wfcs

     total cpu time spent up to now is        0.8 secs

     Self-consistent Calculation

     iteration #  1     ecut=    30.00 Ry     beta= 0.30
     Davidson diagonalization with overlap

---- Real-time Memory Report at c_bands before calling an iterative solver
            36 MiB given to the printing process from OS
             0 MiB allocation reported by mallinfo(arena+hblkhd)
           236 MiB available memory on the node where the printing process lives
------------------
     ethr =  1.00E-02,  avg # of iterations =  3.0

     total cpu time spent up to now is        1.0 secs

     WARNING: integrated charge=    16.00000274, expected=    16.00000000

     total energy              =     -45.76563765 Ry
     estimated scf accuracy    <       0.31040823 Ry

     iteration #  2     ecut=    30.00 Ry     beta= 0.30
     Davidson diagonalization with overlap

---- Real-time Memory Report at c_bands before calling an iterative solver
            39 MiB given to the printing process from OS
             0 MiB allocation reported by mallinfo(arena+hblkhd)
           225 MiB available memory on the node where the printing process lives
------------------
     ethr =  1.94E-03,  avg # of iterations =  1.0

     total cpu time spent up to now is        1.2 secs

     WARNING: integrated charge=    16.00000838, expected=    16.00000000

     total energy              =     -45.67586345 Ry
     estimated scf accuracy    <       0.15009605 Ry

     iteration #  3     ecut=    30.00 Ry     beta= 0.30
     Davidson diagonalization with overlap

---- Real-time Memory Report at c_bands before calling an iterative solver
            40 MiB given to the printing process from OS
             0 MiB allocation reported by mallinfo(arena+hblkhd)
           224 MiB available memory on the node where the printing process lives
------------------
     ethr =  9.38E-04,  avg # of iterations =  4.5

     total cpu time spent up to now is        1.4 secs

     WARNING: integrated charge=    16.00000724, expected=    16.00000000

     total energy              =     -45.71028418 Ry
     estimated scf accuracy    <       0.02112737 Ry

     iteration #  4     ecut=    30.00 Ry     beta= 0.30
     Davidson diagonalization with overlap

---- Real-time Memory Report at c_bands before calling an iterative solver
            40 MiB given to the printing process from OS
             0 MiB allocation reported by mallinfo(arena+hblkhd)
           224 MiB available memory on the node where the printing process lives
------------------
     ethr =  1.32E-04,  avg # of iterations =  3.0

     total cpu time spent up to now is        1.5 secs

     WARNING: integrated charge=    16.00000714, expected=    16.00000000

     total energy              =     -45.70863802 Ry
     estimated scf accuracy    <       0.00426729 Ry

     iteration #  5     ecut=    30.00 Ry     beta= 0.30
     Davidson diagonalization with overlap

---- Real-time Memory Report at c_bands before calling an iterative solver
            40 MiB given to the printing process from OS
             0 MiB allocation reported by mallinfo(arena+hblkhd)
           224 MiB available memory on the node where the printing process lives
------------------
     ethr =  2.67E-05,  avg # of iterations =  3.5

     total cpu time spent up to now is        1.7 secs

     WARNING: integrated charge=    16.00000720, expected=    16.00000000

     total energy              =     -45.70955235 Ry
     estimated scf accuracy    <       0.00231445 Ry

     iteration #  6     ecut=    30.00 Ry     beta= 0.30
     Davidson diagonalization with overlap

---- Real-time Memory Report at c_bands before calling an iterative solver
            40 MiB given to the printing process from OS
             0 MiB allocation reported by mallinfo(arena+hblkhd)
           224 MiB available memory on the node where the printing process lives
------------------
     ethr =  1.45E-05,  avg # of iterations =  2.0

     total cpu time spent up to now is        1.9 secs

     WARNING: integrated charge=    16.00000719, expected=    16.00000000

     total energy              =     -45.70959392 Ry
     estimated scf accuracy    <       0.00016057 Ry

     iteration #  7     ecut=    30.00 Ry     beta= 0.30
     Davidson diagonalization with overlap

---- Real-time Memory Report at c_bands before calling an iterative solver
            40 MiB given to the printing process from OS
             0 MiB allocation reported by mallinfo(arena+hblkhd)
           224 MiB available memory on the node where the printing process lives
------------------
     ethr =  1.00E-06,  avg # of iterations =  5.5

     total cpu time spent up to now is        2.0 secs

     WARNING: integrated charge=    16.00000717, expected=    16.00000000

     total energy              =     -45.70965013 Ry
     estimated scf accuracy    <       0.00000154 Ry

     iteration #  8     ecut=    30.00 Ry     beta= 0.30
     Davidson diagonalization with overlap

---- Real-time Memory Report at c_bands before calling an iterative solver
            40 MiB given to the printing process from OS
             0 MiB allocation reported by mallinfo(arena+hblkhd)
           224 MiB available memory on the node where the printing process lives
------------------
     ethr =  9.64E-09,  avg # of iterations =  4.7

     total cpu time spent up to now is        2.2 secs

     WARNING: integrated charge=    16.00000717, expected=    16.00000000

     total energy              =     -45.70965174 Ry
     estimated scf accuracy    <       0.00000047 Ry

     iteration #  9     ecut=    30.00 Ry     beta= 0.30
     Davidson diagonalization with overlap

---- Real-time Memory Report at c_bands before calling an iterative solver
            41 MiB given to the printing process from OS
             0 MiB allocation reported by mallinfo(arena+hblkhd)
           224 MiB available memory on the node where the printing process lives
------------------
     ethr =  2.91E-09,  avg # of iterations =  2.8

     total cpu time spent up to now is        2.4 secs

     WARNING: integrated charge=    16.00000714, expected=    16.00000000

     total energy              =     -45.70965300 Ry
     estimated scf accuracy    <       0.00000060 Ry

     iteration # 10     ecut=    30.00 Ry     beta= 0.30
     Davidson diagonalization with overlap

---- Real-time Memory Report at c_bands before calling an iterative solver
            41 MiB given to the printing process from OS
             0 MiB allocation reported by mallinfo(arena+hblkhd)
           223 MiB available memory on the node where the printing process lives
------------------
     ethr =  2.91E-09,  avg # of iterations =  1.7

     total cpu time spent up to now is        2.5 secs

     WARNING: integrated charge=    16.00000715, expected=    16.00000000

     total energy              =     -45.70965311 Ry
     estimated scf accuracy    <       0.00000009 Ry

     iteration # 11     ecut=    30.00 Ry     beta= 0.30
     Davidson diagonalization with overlap

---- Real-time Memory Report at c_bands before calling an iterative solver
            41 MiB given to the printing process from OS
             0 MiB allocation reported by mallinfo(arena+hblkhd)
           223 MiB available memory on the node where the printing process lives
------------------
     ethr =  5.72E-10,  avg # of iterations =  1.7

     total cpu time spent up to now is        2.7 secs

     WARNING: integrated charge=    16.00000715, expected=    16.00000000

     total energy              =     -45.70965306 Ry
     estimated scf accuracy    <       0.00000022 Ry

     iteration # 12     ecut=    30.00 Ry     beta= 0.30
     Davidson diagonalization with overlap

---- Real-time Memory Report at c_bands before calling an iterative solver
            41 MiB given to the printing process from OS
             0 MiB allocation reported by mallinfo(arena+hblkhd)
           223 MiB available memory on the node where the printing process lives
------------------
     ethr =  5.72E-10,  avg # of iterations =  1.0

     total cpu time spent up to now is        2.8 secs

     WARNING: integrated charge=    16.00000715, expected=    16.00000000

     total energy              =     -45.70965298 Ry
     estimated scf accuracy    <       0.00000012 Ry

     iteration # 13     ecut=    30.00 Ry     beta= 0.30
     Davidson diagonalization with overlap

---- Real-time Memory Report at c_bands before calling an iterative solver
            41 MiB given to the printing process from OS
             0 MiB allocation reported by mallinfo(arena+hblkhd)
           223 MiB available memory on the node where the printing process lives
------------------
     ethr =  5.72E-10,  avg # of iterations =  2.0

     total cpu time spent up to now is        2.9 secs

     End of self-consistent calculation

          k = 0.1250 0.2165 0.0962 (   626 PWs)   bands (ev):

   -11.0922 -10.7958   0.0851   1.0664   1.1141   1.7859   2.0771   2.1114
    13.7205  15.1380  15.5167  16.2957

     occupation numbers 
     1.0000   1.0000   1.0000   1.0000   1.0000   1.0000   1.0000   1.0000
     0.0000   0.0000   0.0000   0.0000

          k = 0.1250 0.5052 0.0962 (   635 PWs)   bands (ev):

    -7.5633  -7.3371  -4.7167  -4.5436  -0.2106  -0.1223   4.0829   5.1951
     9.0760   9.8212  16.0041  16.4400

     occupation numbers 
     1.0000   1.0000   1.0000   1.0000   1.0000   1.0000   1.0000   1.0000
     0.0000   0.0000   0.0000   0.0000

          k = 0.1250-0.3608 0.0962 (   638 PWs)   bands (ev):

    -9.6465  -9.3769  -1.7129  -1.5933   0.5537   0.6282   1.8068   3.3663
    12.0447  12.6791  15.3655  16.3540

     occupation numbers 
     1.0000   1.0000   1.0000   1.0000   1.0000   1.0000   1.0000   1.0000
     0.0000   0.0000   0.0000   0.0000

          k = 0.1250-0.0722 0.0962 (   616 PWs)   bands (ev):

   -11.8261 -11.5160  -0.8041   0.9517   2.8197   2.8723   3.4704   3.5091
    12.8766  15.5092  15.6535  17.1673

     occupation numbers 
     1.0000   1.0000   1.0000   1.0000   1.0000   1.0000   1.0000   1.0000
     0.0000   0.0000   0.0000   0.0000

          k = 0.3750 0.6495 0.0962 (   638 PWs)   bands (ev):

    -5.9124  -5.8025  -5.0813  -5.0286  -2.5305  -2.4153   5.7946   6.4142
     8.1538   8.3097  17.6471  17.8324

     occupation numbers 
     1.0000   1.0000   1.0000   1.0000   1.0000   1.0000   1.0000   1.0000
     0.0000   0.0000   0.0000   0.0000

          k = 0.3750-0.2165 0.0962 (   632 PWs)   bands (ev):

    -8.9353  -8.6789  -3.4151  -3.2542   1.1560   1.2153   2.6031   4.0382
    10.5145  11.4353  14.6922  15.0416

     occupation numbers 
     1.0000   1.0000   1.0000   1.0000   1.0000   1.0000   1.0000   1.0000
     0.0000   0.0000   0.0000   0.0000

     the Fermi energy is     7.4659 ev

     WARNING: integrated charge=    16.00000715, expected=    16.00000000

!    total energy              =     -45.70965300 Ry
     estimated scf accuracy    <          7.3E-10 Ry
     smearing contrib. (-TS)   =       0.00000011 Ry
     internal energy E=F+TS    =     -45.70965311 Ry

     The total energy is F=E-TS. E is the sum of the following terms:
     one-electron contribution =      -7.90156023 Ry
     hartree contribution      =      11.96978687 Ry
     xc contribution           =     -13.90188418 Ry
     ewald contribution        =     -35.87599557 Ry

     convergence has been achieved in  13 iterations

     Forces acting on atoms (cartesian axes, Ry/au):

     atom    1 type  1   force =    -0.00000000   -0.00000000    0.00000000
     atom    2 type  1   force =     0.00000000    0.00000000    0.00000000
     atom    3 type  1   force =     0.00000000    0.00000000    0.00000000
     atom    4 type  1   force =     0.00000000    0.00000000    0.00000000
     The non-local contrib.  to forces
     atom    1 type  1   force =    -0.00000000   -0.00000000    0.00000000
     atom    2 type  1   force =     0.00000000    0.00000000    0.00000000
     atom    3 type  1   force =     0.00000000    0.00000000    0.00000000
     atom    4 type  1   force =    -0.00000000   -0.00000000    0.00000000
     The ionic contribution  to forces
     atom    1 type  1   force =     0.00000852   -0.00000492    0.00000000
     atom    2 type  1   force =    -0.00000856    0.00000494    0.00000000
     atom    3 type  1   force =    -0.00000852    0.00000492    0.00000000
     atom    4 type  1   force =     0.00000856   -0.00000494    0.00000000
     The local contribution  to forces
     atom    1 type  1   force =    -0.00000000    0.00000000    0.00000000
     atom    2 type  1   force =    -0.00000688    0.00000397    0.00000000
     atom    3 type  1   force =    -0.00000000   -0.00000000    0.00000000
     atom    4 type  1   force =     0.00000688   -0.00000397    0.00000000
     The core correction contribution to forces
     atom    1 type  1   force =     0.00000000    0.00000000    0.00000000
     atom    2 type  1   force =     0.00000000    0.00000000    0.00000000
     atom    3 type  1   force =     0.00000000    0.00000000    0.00000000
     atom    4 type  1   force =     0.00000000    0.00000000    0.00000000
     The Hubbard contrib.    to forces
     atom    1 type  1   force =     0.00000000    0.00000000    0.00000000
     atom    2 type  1   force =     0.00000000    0.00000000    0.00000000
     atom    3 type  1   force =     0.00000000    0.00000000    0.00000000
     atom    4 type  1   force =     0.00000000    0.00000000    0.00000000
     The SCF correction term to forces
     atom    1 type  1   force =    -0.00000000    0.00000000    0.00000000
     atom    2 type  1   force =     0.00000000   -0.00000000    0.00000000
     atom    3 type  1   force =     0.00000000   -0.00000000    0.00000000
     atom    4 type  1   force =    -0.00000000    0.00000000    0.00000000

     Total force =     0.000000     Total SCF correction =     0.000000


     Computing stress (Cartesian axis) and pressure

          total   stress  (Ry/bohr**3)                   (kbar)     P=      -95.23
  -0.00096175  -0.00000000  -0.00000000         -141.48       -0.00       -0.00
  -0.00000000  -0.00096175   0.00000000           -0.00     -141.48        0.00
  -0.00000000   0.00000000  -0.00001866           -0.00        0.00       -2.74

     kinetic stress (kbar)  11393.56      0.00      0.00
                                0.00  11393.56      0.00
                                0.00      0.00  13139.85

     local   stress (kbar) -21822.23      0.01     -0.00
                                0.01 -21822.21      0.00
                               -0.00      0.00  19614.77

     nonloc. stress (kbar)   4004.45      0.00      0.00
                                0.00   4004.45      0.00
                                0.00      0.00   3522.18

     hartree stress (kbar)   6676.72     -0.00      0.00
                               -0.00   6676.72     -0.00
                                0.00     -0.00  -5625.30

     exc-cor stress (kbar)  -2759.78      0.00      0.00
                                0.00  -2759.78      0.00
                                0.00      0.00  -2759.78

     corecor stress (kbar)      0.00      0.00      0.00
                                0.00      0.00      0.00
                                0.00      0.00      0.00

     ewald   stress (kbar)   2365.81     -0.03     -0.00
                               -0.03   2365.78     -0.00
                               -0.00     -0.00 -27894.47

     hubbard stress (kbar)      0.00      0.00      0.00
                                0.00      0.00      0.00
                                0.00      0.00      0.00

     DFT-D   stress (kbar)      0.00      0.00      0.00
                                0.00      0.00      0.00
                                0.00      0.00      0.00

     XDM     stress (kbar)      0.00      0.00      0.00
                                0.00      0.00      0.00
                                0.00      0.00      0.00

     dft-nl  stress (kbar)      0.00      0.00      0.00
                                0.00      0.00      0.00
                                0.00      0.00      0.00

     TS-vdW  stress (kbar)      0.00      0.00      0.00
                                0.00      0.00      0.00
                                0.00      0.00      0.00


                                0.00      0.00      0.00
                                0.00      0.00      0.00


                                0.00      0.00      0.00


     BFGS Geometry Optimization
     Energy error            =      0.0E+00 Ry
     Gradient error          =      1.2E-22 Ry/Bohr
     Cell gradient error     =      1.4E+02 kbar

     number of scf cycles    =   1
     number of bfgs steps    =   0

     enthalpy           new  =     -45.7096530027 Ry

     new trust radius        =       0.0725859756 bohr
     new conv_thr            =       0.0000000010 Ry

     new unit-cell volume =    216.91880 a.u.^3 (    32.14405 Ang^3 )
     density =      2.48192 g/cm^3

CELL_PARAMETERS (alat=  4.66006462)
   0.975956198  -0.000000000  -0.000000000
  -0.487978099   0.845202860   0.000000000
  -0.000000000   0.000000000   2.598544110

ATOMIC_POSITIONS (crystal)
C             0.0000000000        1.0000000000        0.7500000000
C             0.6666670000        0.3333330000        0.7500000000
C             0.0000000000        1.0000000000        0.2500000000
C             0.3333330000        0.6666670000        0.2500000000



     Writing config-only to output data dir ././graphite_lda.save/
     NEW-OLD atomic charge density approx. for the potential
     extrapolated charge   15.19411, renormalised to   16.00000

     total cpu time spent up to now is        4.3 secs

     Self-consistent Calculation

     iteration #  1     ecut=    30.00 Ry     beta= 0.30
     Davidson diagonalization with overlap

---- Real-time Memory Report at c_bands before calling an iterative solver
            41 MiB given to the printing process from OS
             0 MiB allocation reported by mallinfo(arena+hblkhd)
           222 MiB available memory on the node where the printing process lives
------------------
     c_bands:  1 eigenvalues not converged
     ethr =  1.00E-06,  avg # of iterations = 12.8

     total cpu time spent up to now is        4.6 secs

     total energy              =     -45.68397918 Ry
     estimated scf accuracy    <       0.01894824 Ry

     iteration #  2     ecut=    30.00 Ry     beta= 0.30
     Davidson diagonalization with overlap

---- Real-time Memory Report at c_bands before calling an iterative solver
            41 MiB given to the printing process from OS
             0 MiB allocation reported by mallinfo(arena+hblkhd)
           222 MiB available memory on the node where the printing process lives
------------------
     ethr =  1.18E-04,  avg # of iterations =  4.3

     total cpu time spent up to now is        4.8 secs

     total energy              =     -45.70833815 Ry
     estimated scf accuracy    <       0.00094798 Ry

     iteration #  3     ecut=    30.00 Ry     beta= 0.30
     Davidson diagonalization with overlap

---- Real-time Memory Report at c_bands before calling an iterative solver
            41 MiB given to the printing process from OS
             0 MiB allocation reported by mallinfo(arena+hblkhd)
           222 MiB available memory on the node where the printing process lives
------------------
     c_bands:  1 eigenvalues not converged
     ethr =  5.92E-06,  avg # of iterations =  9.2

     total cpu time spent up to now is        5.0 secs

     total energy              =     -45.70825446 Ry
     estimated scf accuracy    <       0.00066024 Ry

     iteration #  4     ecut=    30.00 Ry     beta= 0.30
     Davidson diagonalization with overlap

---- Real-time Memory Report at c_bands before calling an iterative solver
            41 MiB given to the printing process from OS
             0 MiB allocation reported by mallinfo(arena+hblkhd)
           222 MiB available memory on the node where the printing process lives
------------------
     ethr =  4.13E-06,  avg # of iterations =  1.5

     total cpu time spent up to now is        5.1 secs

     WARNING: integrated charge=    16.00000167, expected=    16.00000000

     total energy              =     -45.70822957 Ry
     estimated scf accuracy    <       0.00010938 Ry

     iteration #  5     ecut=    30.00 Ry     beta= 0.30
     Davidson diagonalization with overlap

---- Real-time Memory Report at c_bands before calling an iterative solver
            41 MiB given to the printing process from OS
             0 MiB allocation reported by mallinfo(arena+hblkhd)
           222 MiB available memory on the node where the printing process lives
------------------
     ethr =  6.84E-07,  avg # of iterations =  4.7

     total cpu time spent up to now is        5.3 secs

     WARNING: integrated charge=    16.00000166, expected=    16.00000000

     total energy              =     -45.70827697 Ry
     estimated scf accuracy    <       0.00008290 Ry

     iteration #  6     ecut=    30.00 Ry     beta= 0.30
     Davidson diagonalization with overlap

---- Real-time Memory Report at c_bands before calling an iterative solver
            41 MiB given to the printing process from OS
             0 MiB allocation reported by mallinfo(arena+hblkhd)
           222 MiB available memory on the node where the printing process lives
------------------
     ethr =  5.18E-07,  avg # of iterations =  1.0

     total cpu time spent up to now is        5.4 secs

     WARNING: integrated charge=    16.00000167, expected=    16.00000000

     total energy              =     -45.70825882 Ry
     estimated scf accuracy    <       0.00003061 Ry

     iteration #  7     ecut=    30.00 Ry     beta= 0.30
     Davidson diagonalization with overlap

---- Real-time Memory Report at c_bands before calling an iterative solver
            41 MiB given to the printing process from OS
             0 MiB allocation reported by mallinfo(arena+hblkhd)
           222 MiB available memory on the node where the printing process lives
------------------
     ethr =  1.91E-07,  avg # of iterations =  2.0

     total cpu time spent up to now is        5.5 secs

     WARNING: integrated charge=    16.00000166, expected=    16.00000000

     total energy              =     -45.70826546 Ry
     estimated scf accuracy    <       0.00000005 Ry

     iteration #  8     ecut=    30.00 Ry     beta= 0.30
     Davidson diagonalization with overlap

---- Real-time Memory Report at c_bands before calling an iterative solver
            41 MiB given to the printing process from OS
             0 MiB allocation reported by mallinfo(arena+hblkhd)
           222 MiB available memory on the node where the printing process lives
------------------
     ethr =  2.91E-10,  avg # of iterations =  5.2

     total cpu time spent up to now is        5.7 secs

     WARNING: integrated charge=    16.00000166, expected=    16.00000000

     total energy              =     -45.70826559 Ry
     estimated scf accuracy    <       0.00000008 Ry

     iteration #  9     ecut=    30.00 Ry     beta= 0.30
     Davidson diagonalization with overlap

---- Real-time Memory Report at c_bands before calling an iterative solver
            41 MiB given to the printing process from OS
             0 MiB allocation reported by mallinfo(arena+hblkhd)
           222 MiB available memory on the node where the printing process lives
------------------
     ethr =  2.91E-10,  avg # of iterations =  1.7

     total cpu time spent up to now is        5.8 secs

     WARNING: integrated charge=    16.00000166, expected=    16.00000000

     total energy              =     -45.70826559 Ry
     estimated scf accuracy    <       0.00000002 Ry

     iteration # 10     ecut=    30.00 Ry     beta= 0.30
     Davidson diagonalization with overlap

---- Real-time Memory Report at c_bands before calling an iterative solver
            41 MiB given to the printing process from OS
             0 MiB allocation reported by mallinfo(arena+hblkhd)
           222 MiB available memory on the node where the printing process lives
------------------
     ethr =  1.32E-10,  avg # of iterations =  1.0

     total cpu time spent up to now is        5.9 secs

     WARNING: integrated charge=    16.00000166, expected=    16.00000000

     total energy              =     -45.70826558 Ry
     estimated scf accuracy    <       0.00000001 Ry

     iteration # 11     ecut=    30.00 Ry     beta= 0.30
     Davidson diagonalization with overlap

---- Real-time Memory Report at c_bands before calling an iterative solver
            42 MiB given to the printing process from OS
             0 MiB allocation reported by mallinfo(arena+hblkhd)
           222 MiB available memory on the node where the printing process lives
------------------
     ethr =  8.47E-11,  avg # of iterations =  2.3

     total cpu time spent up to now is        6.1 secs

     End of self-consistent calculation

          k = 0.1281 0.2218 0.0962 (   626 PWs)   bands (ev):

   -11.0531 -10.7658   0.2502   1.5818   1.6252   1.9199   2.5254   2.5563
    14.0635  16.3054  16.6758  17.3932

     occupation numbers 
     1.0000   1.0000   1.0000   1.0000   1.0000   1.0000   1.0000   1.0000
     0.0000   0.0000   0.0000   0.0000

          k = 0.1281 0.5176 0.0962 (   635 PWs)   bands (ev):

    -7.3558  -7.1366  -4.4625  -4.2946   0.1277   0.2093   4.4952   5.5962
     9.7391  10.5028  17.3424  17.7449

     occupation numbers 
     1.0000   1.0000   1.0000   1.0000   1.0000   1.0000   1.0000   1.0000
     0.0000   0.0000   0.0000   0.0000

          k = 0.1281-0.3697 0.0962 (   638 PWs)   bands (ev):

    -9.5444  -9.2843  -1.3088  -1.1953   0.9244   0.9942   2.0753   3.6099
    12.9568  13.5951  15.8295  17.6288

     occupation numbers 
     1.0000   1.0000   1.0000   1.0000   1.0000   1.0000   1.0000   1.0000
     0.0000   0.0000   0.0000   0.0000

          k = 0.1281-0.0739 0.0962 (   616 PWs)   bands (ev):

   -11.8182 -11.5169  -0.6913   1.0306   3.3799   3.4275   4.0183   4.0530
    13.1677  16.6023  16.7618  17.8673

     occupation numbers 
     1.0000   1.0000   1.0000   1.0000   1.0000   1.0000   1.0000   1.0000
     0.0000   0.0000   0.0000   0.0000

          k = 0.3842 0.6655 0.0962 (   638 PWs)   bands (ev):

    -5.5638  -5.4596  -4.8665  -4.8081  -2.3358  -2.2191   6.3197   6.9245
     8.7851   8.9112  18.3796  18.6140

     occupation numbers 
     1.0000   1.0000   1.0000   1.0000   1.0000   1.0000   1.0000   1.0000
     0.0000   0.0000   0.0000   0.0000

          k = 0.3842-0.2218 0.0962 (   632 PWs)   bands (ev):

    -8.7999  -8.5528  -3.0972  -2.9448   1.5483   1.6014   2.9212   4.3366
    11.2857  12.2191  15.9699  16.2481

     occupation numbers 
     1.0000   1.0000   1.0000   1.0000   1.0000   1.0000   1.0000   1.0000
     0.0000   0.0000   0.0000   0.0000

     the Fermi energy is     8.0377 ev

     WARNING: integrated charge=    16.00000166, expected=    16.00000000

!    total energy              =     -45.70826559 Ry
     estimated scf accuracy    <          1.6E-10 Ry
     smearing contrib. (-TS)   =       0.00000002 Ry
     internal energy E=F+TS    =     -45.70826561 Ry

     The total energy is F=E-TS. E is the sum of the following terms:
     one-electron contribution =      -8.47071040 Ry
     hartree contribution      =      12.56684221 Ry
     xc contribution           =     -14.11393476 Ry
     ewald contribution        =     -35.69046267 Ry

     convergence has been achieved in  11 iterations

     Forces acting on atoms (cartesian axes, Ry/au):

     atom    1 type  1   force =    -0.00000000   -0.00000000   -0.00000000
     atom    2 type  1   force =     0.00000000    0.00000000   -0.00000000
     atom    3 type  1   force =     0.00000000    0.00000000    0.00000000
     atom    4 type  1   force =    -0.00000000   -0.00000000    0.00000000
     The non-local contrib.  to forces
     atom    1 type  1   force =     0.00000000   -0.00000000    0.00000000
     atom    2 type  1   force =    -0.00000000    0.00000000   -0.00000000
     atom    3 type  1   force =     0.00000000    0.00000000   -0.00000000
     atom    4 type  1   force =     0.00000000    0.00000000    0.00000000
     The ionic contribution  to forces
     atom    1 type  1   force =     0.00000895   -0.00000516   -0.00000000
     atom    2 type  1   force =    -0.00000898    0.00000518    0.00000000
     atom    3 type  1   force =    -0.00000895    0.00000516   -0.00000000
     atom    4 type  1   force =     0.00000898   -0.00000518   -0.00000000
     The local contribution  to forces
     atom    1 type  1   force =    -0.00000000    0.00000000    0.00000000
     atom    2 type  1   force =    -0.00000641    0.00000370    0.00000000
     atom    3 type  1   force =    -0.00000000   -0.00000000    0.00000000
     atom    4 type  1   force =     0.00000641   -0.00000370    0.00000000
     The core correction contribution to forces
     atom    1 type  1   force =     0.00000000    0.00000000    0.00000000
     atom    2 type  1   force =     0.00000000    0.00000000    0.00000000
     atom    3 type  1   force =     0.00000000    0.00000000    0.00000000
     atom    4 type  1   force =     0.00000000    0.00000000    0.00000000
     The Hubbard contrib.    to forces
     atom    1 type  1   force =     0.00000000    0.00000000    0.00000000
     atom    2 type  1   force =     0.00000000    0.00000000    0.00000000
     atom    3 type  1   force =     0.00000000    0.00000000    0.00000000
     atom    4 type  1   force =     0.00000000    0.00000000    0.00000000
     The SCF correction term to forces
     atom    1 type  1   force =    -0.00000000    0.00000000   -0.00000000
     atom    2 type  1   force =     0.00000000   -0.00000000   -0.00000000
     atom    3 type  1   force =     0.00000000   -0.00000000    0.00000000
     atom    4 type  1   force =    -0.00000000    0.00000000    0.00000000

     Total force =     0.000000     Total SCF correction =     0.000000


     Computing stress (Cartesian axis) and pressure

          total   stress  (Ry/bohr**3)                   (kbar)     P=      127.30
   0.00130558   0.00000000   0.00000000          192.06        0.00        0.00
   0.00000000   0.00130558   0.00000000            0.00      192.06        0.00
   0.00000000   0.00000000  -0.00001500            0.00        0.00       -2.21

     kinetic stress (kbar)  12318.32      0.00      0.00
                                0.00  12318.32     -0.00
                                0.00     -0.00  14014.35

     local   stress (kbar) -24210.30      0.01      0.00
                                0.01 -24210.28      0.00
                                0.00      0.00  22337.61

     nonloc. stress (kbar)   4294.01      0.00      0.00
                                0.00   4294.01     -0.00
                                0.00     -0.00   3740.98

     hartree stress (kbar)   7465.38     -0.00     -0.00
                               -0.00   7465.38     -0.00
                               -0.00     -0.00  -6408.47

     exc-cor stress (kbar)  -2944.55      0.00      0.00
                                0.00  -2944.55      0.00
                                0.00      0.00  -2944.55

     corecor stress (kbar)      0.00      0.00      0.00
                                0.00      0.00      0.00
                                0.00      0.00      0.00

     ewald   stress (kbar)   3269.20     -0.03      0.00
                               -0.03   3269.17     -0.00
                                0.00     -0.00 -30742.12

     hubbard stress (kbar)      0.00      0.00      0.00
                                0.00      0.00      0.00
                                0.00      0.00      0.00

     DFT-D   stress (kbar)      0.00      0.00      0.00
                                0.00      0.00      0.00
                                0.00      0.00      0.00

     XDM     stress (kbar)      0.00      0.00      0.00
                                0.00      0.00      0.00
                                0.00      0.00      0.00

     dft-nl  stress (kbar)      0.00      0.00      0.00
                                0.00      0.00      0.00
                                0.00      0.00      0.00

     TS-vdW  stress (kbar)      0.00      0.00      0.00
                                0.00      0.00      0.00
                                0.00      0.00      0.00


                                0.00      0.00      0.00
                                0.00      0.00      0.00


                                0.00      0.00      0.00

     Energy error            =      1.4E-03 Ry
     Gradient error          =      4.2E-22 Ry/Bohr
     Cell gradient error     =      1.9E+02 kbar

     number of scf cycles    =   2
     number of bfgs steps    =   1

     enthalpy           old  =     -45.7096530027 Ry
     enthalpy           new  =     -45.7082655866 Ry

     CASE: enthalpy          _new > enthalpy          _old

     new trust radius        =       0.0320636476 bohr
     new conv_thr            =       0.0000000010 Ry

     new unit-cell volume =    222.98358 a.u.^3 (    33.04276 Ang^3 )
     density =      2.41442 g/cm^3

CELL_PARAMETERS (alat=  4.66006462)
   0.989376572  -0.000000000  -0.000000000
  -0.494688286   0.856825246   0.000000000
  -0.000000000   0.000000000   2.599220929

ATOMIC_POSITIONS (crystal)
C             0.0000000000        1.0000000000        0.7500000000
C             0.6666670000        0.3333330000        0.7500000000
C             0.0000000000        1.0000000000        0.2500000000
C             0.3333330000        0.6666670000        0.2500000000



     Writing config-only to output data dir ././graphite_lda.save/
     NEW-OLD atomic charge density approx. for the potential
     extrapolated charge   16.43517, renormalised to   16.00000

     total cpu time spent up to now is        7.4 secs

     Self-consistent Calculation

     iteration #  1     ecut=    30.00 Ry     beta= 0.30
     Davidson diagonalization with overlap

---- Real-time Memory Report at c_bands before calling an iterative solver
            42 MiB given to the printing process from OS
             0 MiB allocation reported by mallinfo(arena+hblkhd)
           222 MiB available memory on the node where the printing process lives
------------------
     ethr =  1.00E-06,  avg # of iterations = 10.0

     total cpu time spent up to now is        7.7 secs

     total energy              =     -45.70427636 Ry
     estimated scf accuracy    <       0.00602323 Ry

     iteration #  2     ecut=    30.00 Ry     beta= 0.30
     Davidson diagonalization with overlap

---- Real-time Memory Report at c_bands before calling an iterative solver
            42 MiB given to the printing process from OS
             0 MiB allocation reported by mallinfo(arena+hblkhd)
           222 MiB available memory on the node where the printing process lives
------------------
     ethr =  3.76E-05,  avg # of iterations =  5.2

     total cpu time spent up to now is        7.9 secs

     WARNING: integrated charge=    16.00000169, expected=    16.00000000

     total energy              =     -45.71210219 Ry
     estimated scf accuracy    <       0.00036564 Ry

     iteration #  3     ecut=    30.00 Ry     beta= 0.30
     Davidson diagonalization with overlap

---- Real-time Memory Report at c_bands before calling an iterative solver
            42 MiB given to the printing process from OS
             0 MiB allocation reported by mallinfo(arena+hblkhd)
           222 MiB available memory on the node where the printing process lives
------------------
     c_bands:  1 eigenvalues not converged
     ethr =  2.29E-06,  avg # of iterations =  8.2

     total cpu time spent up to now is        8.0 secs

     WARNING: integrated charge=    16.00000240, expected=    16.00000000

     total energy              =     -45.71207211 Ry
     estimated scf accuracy    <       0.00024156 Ry

     iteration #  4     ecut=    30.00 Ry     beta= 0.30
     Davidson diagonalization with overlap

---- Real-time Memory Report at c_bands before calling an iterative solver
            42 MiB given to the printing process from OS
             0 MiB allocation reported by mallinfo(arena+hblkhd)
           222 MiB available memory on the node where the printing process lives
------------------
     c_bands:  1 eigenvalues not converged
     ethr =  1.51E-06,  avg # of iterations =  4.2

     total cpu time spent up to now is        8.2 secs

     WARNING: integrated charge=    16.00000386, expected=    16.00000000

     total energy              =     -45.71202569 Ry
     estimated scf accuracy    <       0.00006976 Ry

     iteration #  5     ecut=    30.00 Ry     beta= 0.30
     Davidson diagonalization with overlap

---- Real-time Memory Report at c_bands before calling an iterative solver
            42 MiB given to the printing process from OS
             0 MiB allocation reported by mallinfo(arena+hblkhd)
           222 MiB available memory on the node where the printing process lives
------------------
     ethr =  4.36E-07,  avg # of iterations =  2.5

     total cpu time spent up to now is        8.4 secs

     WARNING: integrated charge=    16.00000382, expected=    16.00000000

     total energy              =     -45.71204776 Ry
     estimated scf accuracy    <       0.00002332 Ry

     iteration #  6     ecut=    30.00 Ry     beta= 0.30
     Davidson diagonalization with overlap

---- Real-time Memory Report at c_bands before calling an iterative solver
            42 MiB given to the printing process from OS
             0 MiB allocation reported by mallinfo(arena+hblkhd)
           222 MiB available memory on the node where the printing process lives
------------------
     ethr =  1.46E-07,  avg # of iterations =  1.0

     total cpu time spent up to now is        8.5 secs

     WARNING: integrated charge=    16.00000383, expected=    16.00000000

     total energy              =     -45.71204417 Ry
     estimated scf accuracy    <       0.00000678 Ry

     iteration #  7     ecut=    30.00 Ry     beta= 0.30
     Davidson diagonalization with overlap

---- Real-time Memory Report at c_bands before calling an iterative solver
            42 MiB given to the printing process from OS
             0 MiB allocation reported by mallinfo(arena+hblkhd)
           222 MiB available memory on the node where the printing process lives
------------------
     ethr =  4.24E-08,  avg # of iterations =  2.0

     total cpu time spent up to now is        8.6 secs

     WARNING: integrated charge=    16.00000384, expected=    16.00000000

     total energy              =     -45.71204544 Ry
     estimated scf accuracy    <       0.00000002 Ry

     iteration #  8     ecut=    30.00 Ry     beta= 0.30
     Davidson diagonalization with overlap

---- Real-time Memory Report at c_bands before calling an iterative solver
            42 MiB given to the printing process from OS
             0 MiB allocation reported by mallinfo(arena+hblkhd)
           222 MiB available memory on the node where the printing process lives
------------------
     ethr =  1.12E-10,  avg # of iterations =  6.2

     total cpu time spent up to now is        8.8 secs

     WARNING: integrated charge=    16.00000384, expected=    16.00000000

     total energy              =     -45.71204545 Ry
     estimated scf accuracy    <       0.00000025 Ry

     iteration #  9     ecut=    30.00 Ry     beta= 0.30
     Davidson diagonalization with overlap

---- Real-time Memory Report at c_bands before calling an iterative solver
            42 MiB given to the printing process from OS
             0 MiB allocation reported by mallinfo(arena+hblkhd)
           222 MiB available memory on the node where the printing process lives
------------------
     ethr =  1.12E-10,  avg # of iterations =  4.0

     total cpu time spent up to now is        9.0 secs

     End of self-consistent calculation

          k = 0.1263 0.2188 0.0962 (   626 PWs)   bands (ev):

   -11.0757 -10.7833   0.1576   1.2897   1.3354   1.8451   2.2708   2.3036
    13.8700  15.6443  16.0193  16.7763

     occupation numbers 
     1.0000   1.0000   1.0000   1.0000   1.0000   1.0000   1.0000   1.0000
     0.0000   0.0000   0.0000   0.0000

          k = 0.1263 0.5106 0.0962 (   635 PWs)   bands (ev):

    -7.4727  -7.2494  -4.6073  -4.4364  -0.0649   0.0205   4.2624   5.3700
     9.3644  10.1181  16.5861  17.0162

     occupation numbers 
     1.0000   1.0000   1.0000   1.0000   1.0000   1.0000   1.0000   1.0000
     0.0000   0.0000   0.0000   0.0000

          k = 0.1263-0.3647 0.0962 (   638 PWs)   bands (ev):

    -9.6024  -9.3369  -1.5377  -1.4207   0.7134   0.7859   1.9241   3.4730
    12.4409  13.0770  15.5685  16.9099

     occupation numbers 
     1.0000   1.0000   1.0000   1.0000   1.0000   1.0000   1.0000   1.0000
     0.0000   0.0000   0.0000   0.0000

          k = 0.1263-0.0729 0.0962 (   616 PWs)   bands (ev):

   -11.8233 -11.5170  -0.7542   0.9871   3.0621   3.1124   3.7071   3.7440
    13.0035  15.9865  16.1346  17.4608

     occupation numbers 
     1.0000   1.0000   1.0000   1.0000   1.0000   1.0000   1.0000   1.0000
     0.0000   0.0000   0.0000   0.0000

          k = 0.3790 0.6565 0.0962 (   638 PWs)   bands (ev):

    -5.7623  -5.6549  -4.9858  -4.9303  -2.4491  -2.3330   6.0230   6.6362
     8.4283   8.5711  17.9664  18.1777

     occupation numbers 
     1.0000   1.0000   1.0000   1.0000   1.0000   1.0000   1.0000   1.0000
     0.0000   0.0000   0.0000   0.0000

          k = 0.3790-0.2188 0.0962 (   632 PWs)   bands (ev):

    -8.8765  -8.6241  -3.2779  -3.1206   1.3256   1.3821   2.7418   4.1687
    10.8498  11.7767  15.2504  15.5796

     occupation numbers 
     1.0000   1.0000   1.0000   1.0000   1.0000   1.0000   1.0000   1.0000
     0.0000   0.0000   0.0000   0.0000

     the Fermi energy is     7.7146 ev

     WARNING: integrated charge=    16.00000384, expected=    16.00000000

!    total energy              =     -45.71204549 Ry
     estimated scf accuracy    <          9.2E-10 Ry
     smearing contrib. (-TS)   =       0.00000006 Ry
     internal energy E=F+TS    =     -45.71204555 Ry

     The total energy is F=E-TS. E is the sum of the following terms:
     one-electron contribution =      -8.14209527 Ry
     hartree contribution      =      12.22554755 Ry
     xc contribution           =     -13.99406223 Ry
     ewald contribution        =     -35.80143560 Ry

     convergence has been achieved in   9 iterations

     Forces acting on atoms (cartesian axes, Ry/au):

     atom    1 type  1   force =     0.00000000    0.00000000    0.00000000
     atom    2 type  1   force =     0.00000000    0.00000000    0.00000000
     atom    3 type  1   force =     0.00000000    0.00000000   -0.00000000
     atom    4 type  1   force =    -0.00000000    0.00000000   -0.00000000
     The non-local contrib.  to forces
     atom    1 type  1   force =     0.00000000    0.00000000   -0.00000000
     atom    2 type  1   force =    -0.00000000   -0.00000000   -0.00000000
     atom    3 type  1   force =     0.00000000   -0.00000000    0.00000000
     atom    4 type  1   force =     0.00000000    0.00000000    0.00000000
     The ionic contribution  to forces
     atom    1 type  1   force =     0.00000870   -0.00000503   -0.00000000
     atom    2 type  1   force =    -0.00000874    0.00000505   -0.00000000
     atom    3 type  1   force =    -0.00000870    0.00000503   -0.00000000
     atom    4 type  1   force =     0.00000874   -0.00000505   -0.00000000
     The local contribution  to forces
     atom    1 type  1   force =    -0.00000000    0.00000000    0.00000000
     atom    2 type  1   force =    -0.00000667    0.00000385    0.00000000
     atom    3 type  1   force =    -0.00000000   -0.00000000    0.00000000
     atom    4 type  1   force =     0.00000667   -0.00000385    0.00000000
     The core correction contribution to forces
     atom    1 type  1   force =     0.00000000    0.00000000    0.00000000
     atom    2 type  1   force =     0.00000000    0.00000000    0.00000000
     atom    3 type  1   force =     0.00000000    0.00000000    0.00000000
     atom    4 type  1   force =     0.00000000    0.00000000    0.00000000
     The Hubbard contrib.    to forces
     atom    1 type  1   force =     0.00000000    0.00000000    0.00000000
     atom    2 type  1   force =     0.00000000    0.00000000    0.00000000
     atom    3 type  1   force =     0.00000000    0.00000000    0.00000000
     atom    4 type  1   force =     0.00000000    0.00000000    0.00000000
     The SCF correction term to forces
     atom    1 type  1   force =     0.00000000   -0.00000000    0.00000000
     atom    2 type  1   force =    -0.00000000    0.00000000   -0.00000000
     atom    3 type  1   force =    -0.00000000    0.00000000    0.00000000
     atom    4 type  1   force =     0.00000000   -0.00000000   -0.00000000

     Total force =     0.000000     Total SCF correction =     0.000000


     Computing stress (Cartesian axis) and pressure

          total   stress  (Ry/bohr**3)                   (kbar)     P=       -2.94
  -0.00002164  -0.00000000  -0.00000000           -3.18       -0.00       -0.00
  -0.00000000  -0.00002164   0.00000000           -0.00       -3.18        0.00
  -0.00000000   0.00000000  -0.00001660           -0.00        0.00       -2.44

     kinetic stress (kbar)  11788.70     -0.00      0.00
                               -0.00  11788.70     -0.00
                                0.00     -0.00  13515.60

     local   stress (kbar) -22838.26      0.01     -0.00
                                0.01 -22838.24     -0.00
                               -0.00     -0.00  20773.15

     nonloc. stress (kbar)   4128.43      0.00      0.00
                                0.00   4128.43     -0.00
                                0.00     -0.00   3615.86

     hartree stress (kbar)   7011.55     -0.00     -0.00
                               -0.00   7011.55      0.00
                               -0.00      0.00  -5957.75

     exc-cor stress (kbar)  -2839.29      0.00      0.00
                                0.00  -2839.29      0.00
                                0.00      0.00  -2839.29

     corecor stress (kbar)      0.00      0.00      0.00
                                0.00      0.00      0.00
                                0.00      0.00      0.00

     ewald   stress (kbar)   2745.69     -0.03      0.00
                               -0.03   2745.66     -0.00
                                0.00     -0.00 -29110.01

     hubbard stress (kbar)      0.00      0.00      0.00
                                0.00      0.00      0.00
                                0.00      0.00      0.00

     DFT-D   stress (kbar)      0.00      0.00      0.00
                                0.00      0.00      0.00
                                0.00      0.00      0.00

     XDM     stress (kbar)      0.00      0.00      0.00
                                0.00      0.00      0.00
                                0.00      0.00      0.00

     dft-nl  stress (kbar)      0.00      0.00      0.00
                                0.00      0.00      0.00
                                0.00      0.00      0.00

     TS-vdW  stress (kbar)      0.00      0.00      0.00
                                0.00      0.00      0.00
                                0.00      0.00      0.00


                                0.00      0.00      0.00
                                0.00      0.00      0.00


                                0.00      0.00      0.00

     Energy error            =      2.4E-03 Ry
     Gradient error          =      1.6E-22 Ry/Bohr
     Cell gradient error     =      3.2E+00 kbar

     number of scf cycles    =   3
     number of bfgs steps    =   1

     enthalpy           old  =     -45.7096530027 Ry
     enthalpy           new  =     -45.7120454942 Ry

     CASE: enthalpy          _new < enthalpy          _old

     new trust radius        =       0.0012239780 bohr
     new conv_thr            =            1.0E-11 Ry

     new unit-cell volume =    222.78270 a.u.^3 (    33.01299 Ang^3 )
     density =      2.41659 g/cm^3

CELL_PARAMETERS (alat=  4.66006462)
   0.989133535  -0.000000000  -0.000000000
  -0.494566767   0.856614769   0.000000000
  -0.000000000   0.000000000   2.598155682

ATOMIC_POSITIONS (crystal)
C             0.0000000000        1.0000000000        0.7500000000
C             0.6666670000        0.3333330000        0.7500000000
C             0.0000000000        1.0000000000        0.2500000000
C             0.3333330000        0.6666670000        0.2500000000



     Writing config-only to output data dir ././graphite_lda.save/
     NEW-OLD atomic charge density approx. for the potential
     extrapolated charge   15.98558, renormalised to   16.00000

     total cpu time spent up to now is       10.4 secs

     Self-consistent Calculation

     iteration #  1     ecut=    30.00 Ry     beta= 0.30
     Davidson diagonalization with overlap

---- Real-time Memory Report at c_bands before calling an iterative solver
            42 MiB given to the printing process from OS
             0 MiB allocation reported by mallinfo(arena+hblkhd)
           222 MiB available memory on the node where the printing process lives
------------------
     ethr =  1.00E-06,  avg # of iterations =  2.0

     Threshold (ethr) on eigenvalues was too large:
     Diagonalizing with lowered threshold

     Davidson diagonalization with overlap

---- Real-time Memory Report at c_bands before calling an iterative solver
            42 MiB given to the printing process from OS
             0 MiB allocation reported by mallinfo(arena+hblkhd)
           222 MiB available memory on the node where the printing process lives
------------------
     ethr =  2.52E-08,  avg # of iterations =  1.8

     total cpu time spent up to now is       10.6 secs

     total energy              =     -45.71204105 Ry
     estimated scf accuracy    <       0.00000427 Ry

     iteration #  2     ecut=    30.00 Ry     beta= 0.30
     Davidson diagonalization with overlap

---- Real-time Memory Report at c_bands before calling an iterative solver
            42 MiB given to the printing process from OS
             0 MiB allocation reported by mallinfo(arena+hblkhd)
           222 MiB available memory on the node where the printing process lives
------------------
     ethr =  2.67E-08,  avg # of iterations =  3.8

     total cpu time spent up to now is       10.8 secs

     WARNING: integrated charge=    16.00000172, expected=    16.00000000

     total energy              =     -45.71204816 Ry
     estimated scf accuracy    <       0.00000066 Ry

     iteration #  3     ecut=    30.00 Ry     beta= 0.30
     Davidson diagonalization with overlap

---- Real-time Memory Report at c_bands before calling an iterative solver
            42 MiB given to the printing process from OS
             0 MiB allocation reported by mallinfo(arena+hblkhd)
           222 MiB available memory on the node where the printing process lives
------------------
     ethr =  4.11E-09,  avg # of iterations =  1.0

     total cpu time spent up to now is       10.9 secs

     WARNING: integrated charge=    16.00000288, expected=    16.00000000

     total energy              =     -45.71204797 Ry
     estimated scf accuracy    <       0.00000038 Ry

     iteration #  4     ecut=    30.00 Ry     beta= 0.30
     Davidson diagonalization with overlap

---- Real-time Memory Report at c_bands before calling an iterative solver
            42 MiB given to the printing process from OS
             0 MiB allocation reported by mallinfo(arena+hblkhd)
           222 MiB available memory on the node where the printing process lives
------------------
     ethr =  2.37E-09,  avg # of iterations =  2.0

     total cpu time spent up to now is       11.1 secs

     WARNING: integrated charge=    16.00000367, expected=    16.00000000

     total energy              =     -45.71204801 Ry
     estimated scf accuracy    <       0.00000002 Ry

     iteration #  5     ecut=    30.00 Ry     beta= 0.30
     Davidson diagonalization with overlap

---- Real-time Memory Report at c_bands before calling an iterative solver
            42 MiB given to the printing process from OS
             0 MiB allocation reported by mallinfo(arena+hblkhd)
           222 MiB available memory on the node where the printing process lives
------------------
     ethr =  1.01E-10,  avg # of iterations =  3.2

     total cpu time spent up to now is       11.2 secs

     WARNING: integrated charge=    16.00000366, expected=    16.00000000

     total energy              =     -45.71204802 Ry
     estimated scf accuracy    <       0.00000002 Ry

     iteration #  6     ecut=    30.00 Ry     beta= 0.30
     Davidson diagonalization with overlap

---- Real-time Memory Report at c_bands before calling an iterative solver
            42 MiB given to the printing process from OS
             0 MiB allocation reported by mallinfo(arena+hblkhd)
           222 MiB available memory on the node where the printing process lives
------------------
     ethr =  1.01E-10,  avg # of iterations =  1.7

     total cpu time spent up to now is       11.4 secs

     WARNING: integrated charge=    16.00000376, expected=    16.00000000

     total energy              =     -45.71204802 Ry
     estimated scf accuracy    <          4.5E-09 Ry

     iteration #  7     ecut=    30.00 Ry     beta= 0.30
     Davidson diagonalization with overlap

---- Real-time Memory Report at c_bands before calling an iterative solver
            42 MiB given to the printing process from OS
             0 MiB allocation reported by mallinfo(arena+hblkhd)
           223 MiB available memory on the node where the printing process lives
------------------
     ethr =  2.79E-11,  avg # of iterations =  2.0

     total cpu time spent up to now is       11.5 secs

     WARNING: integrated charge=    16.00000380, expected=    16.00000000

     total energy              =     -45.71204802 Ry
     estimated scf accuracy    <          2.6E-10 Ry

     iteration #  8     ecut=    30.00 Ry     beta= 0.30
     Davidson diagonalization with overlap

---- Real-time Memory Report at c_bands before calling an iterative solver
            42 MiB given to the printing process from OS
             0 MiB allocation reported by mallinfo(arena+hblkhd)
           222 MiB available memory on the node where the printing process lives
------------------
     ethr =  1.60E-12,  avg # of iterations =  3.2

     total cpu time spent up to now is       11.7 secs

     WARNING: integrated charge=    16.00000380, expected=    16.00000000

     total energy              =     -45.71204802 Ry
     estimated scf accuracy    <          1.4E-11 Ry

     iteration #  9     ecut=    30.00 Ry     beta= 0.30
     Davidson diagonalization with overlap

---- Real-time Memory Report at c_bands before calling an iterative solver
            42 MiB given to the printing process from OS
             0 MiB allocation reported by mallinfo(arena+hblkhd)
           222 MiB available memory on the node where the printing process lives
------------------
     ethr =  1.00E-13,  avg # of iterations =  3.7

     total cpu time spent up to now is       11.9 secs

     End of self-consistent calculation

          k = 0.1264 0.2189 0.0962 (   626 PWs)   bands (ev):

   -11.0710 -10.7778   0.1626   1.2996   1.3454   1.8530   2.2800   2.3129
    13.8833  15.6600  16.0359  16.7923

     occupation numbers 
     1.0000   1.0000   1.0000   1.0000   1.0000   1.0000   1.0000   1.0000
     0.0000   0.0000   0.0000   0.0000

          k = 0.1264 0.5107 0.0962 (   635 PWs)   bands (ev):

    -7.4662  -7.2423  -4.6003  -4.4288  -0.0569   0.0287   4.2701   5.3798
     9.3753  10.1305  16.6038  17.0347

     occupation numbers 
     1.0000   1.0000   1.0000   1.0000   1.0000   1.0000   1.0000   1.0000
     0.0000   0.0000   0.0000   0.0000

          k = 0.1264-0.3648 0.0962 (   638 PWs)   bands (ev):

    -9.5970  -9.3308  -1.5290  -1.4118   0.7218   0.7945   1.9302   3.4818
    12.4540  13.0915  15.5824  16.9272

     occupation numbers 
     1.0000   1.0000   1.0000   1.0000   1.0000   1.0000   1.0000   1.0000
     0.0000   0.0000   0.0000   0.0000

          k = 0.1264-0.0730 0.0962 (   616 PWs)   bands (ev):

   -11.8189 -11.5118  -0.7498   0.9945   3.0724   3.1229   3.7173   3.7544
    13.0166  16.0022  16.1508  17.4770

     occupation numbers 
     1.0000   1.0000   1.0000   1.0000   1.0000   1.0000   1.0000   1.0000
     0.0000   0.0000   0.0000   0.0000

          k = 0.3791 0.6567 0.0962 (   638 PWs)   bands (ev):

    -5.7542  -5.6466  -4.9789  -4.9231  -2.4425  -2.3260   6.0320   6.6463
     8.4394   8.5825  17.9789  18.1911

     occupation numbers 
     1.0000   1.0000   1.0000   1.0000   1.0000   1.0000   1.0000   1.0000
     0.0000   0.0000   0.0000   0.0000

          k = 0.3791-0.2189 0.0962 (   632 PWs)   bands (ev):

    -8.8707  -8.6177  -3.2702  -3.1125   1.3342   1.3909   2.7485   4.1779
    10.8614  11.7903  15.2676  15.5973

     occupation numbers 
     1.0000   1.0000   1.0000   1.0000   1.0000   1.0000   1.0000   1.0000
     0.0000   0.0000   0.0000   0.0000

     the Fermi energy is     7.7252 ev

     WARNING: integrated charge=    16.00000379, expected=    16.00000000

!    total energy              =     -45.71204802 Ry
     estimated scf accuracy    <          2.4E-12 Ry
     smearing contrib. (-TS)   =       0.00000006 Ry
     internal energy E=F+TS    =     -45.71204808 Ry

     The total energy is F=E-TS. E is the sum of the following terms:
     one-electron contribution =      -8.11768098 Ry
     hartree contribution      =      12.21942882 Ry
     xc contribution           =     -13.99631532 Ry
     ewald contribution        =     -35.81748060 Ry

     convergence has been achieved in   9 iterations

     Forces acting on atoms (cartesian axes, Ry/au):

     atom    1 type  1   force =    -0.00000000    0.00000000   -0.00000000
     atom    2 type  1   force =     0.00000000    0.00000000    0.00000000
     atom    3 type  1   force =     0.00000000   -0.00000000    0.00000000
     atom    4 type  1   force =    -0.00000000   -0.00000000   -0.00000000
     The non-local contrib.  to forces
     atom    1 type  1   force =    -0.00000000    0.00000000   -0.00000000
     atom    2 type  1   force =    -0.00000000    0.00000000   -0.00000000
     atom    3 type  1   force =     0.00000000   -0.00000000    0.00000000
     atom    4 type  1   force =     0.00000000    0.00000000    0.00000000
     The ionic contribution  to forces
     atom    1 type  1   force =     0.00000871   -0.00000503   -0.00000000
     atom    2 type  1   force =    -0.00000874    0.00000505   -0.00000000
     atom    3 type  1   force =    -0.00000871    0.00000503   -0.00000000
     atom    4 type  1   force =     0.00000874   -0.00000505   -0.00000000
     The local contribution  to forces
     atom    1 type  1   force =    -0.00000000    0.00000000    0.00000000
     atom    2 type  1   force =    -0.00000666    0.00000385    0.00000000
[...]
           223 MiB available memory on the node where the printing process lives
------------------
     c_bands:  3 eigenvalues not converged
     c_bands:  2 eigenvalues not converged
     c_bands:  4 eigenvalues not converged
     c_bands:  2 eigenvalues not converged
     ethr =  1.00E-06,  avg # of iterations = 18.5

     total cpu time spent up to now is       25.0 secs

     total energy              =     -45.76273618 Ry
     estimated scf accuracy    <       0.44041908 Ry

     iteration #  2     ecut=    30.00 Ry     beta= 0.30
     Davidson diagonalization with overlap

---- Real-time Memory Report at c_bands before calling an iterative solver
            42 MiB given to the printing process from OS
             0 MiB allocation reported by mallinfo(arena+hblkhd)
           223 MiB available memory on the node where the printing process lives
------------------
     ethr =  2.75E-03,  avg # of iterations =  1.0

     total cpu time spent up to now is       25.1 secs

     WARNING: integrated charge=    16.00000378, expected=    16.00000000

     total energy              =     -45.67919083 Ry
     estimated scf accuracy    <       0.15290826 Ry

     iteration #  3     ecut=    30.00 Ry     beta= 0.30
     Davidson diagonalization with overlap

---- Real-time Memory Report at c_bands before calling an iterative solver
            42 MiB given to the printing process from OS
             0 MiB allocation reported by mallinfo(arena+hblkhd)
           223 MiB available memory on the node where the printing process lives
------------------
     ethr =  9.56E-04,  avg # of iterations =  4.0

     total cpu time spent up to now is       25.2 secs

     WARNING: integrated charge=    16.00000353, expected=    16.00000000

     total energy              =     -45.71116043 Ry
     estimated scf accuracy    <       0.00351938 Ry

     iteration #  4     ecut=    30.00 Ry     beta= 0.30
     Davidson diagonalization with overlap

---- Real-time Memory Report at c_bands before calling an iterative solver
            42 MiB given to the printing process from OS
             0 MiB allocation reported by mallinfo(arena+hblkhd)
           223 MiB available memory on the node where the printing process lives
------------------
     ethr =  2.20E-05,  avg # of iterations =  3.5

     total cpu time spent up to now is       25.4 secs

     WARNING: integrated charge=    16.00000379, expected=    16.00000000

     total energy              =     -45.71170644 Ry
     estimated scf accuracy    <       0.00123333 Ry

     iteration #  5     ecut=    30.00 Ry     beta= 0.30
     Davidson diagonalization with overlap

---- Real-time Memory Report at c_bands before calling an iterative solver
            42 MiB given to the printing process from OS
             0 MiB allocation reported by mallinfo(arena+hblkhd)
           223 MiB available memory on the node where the printing process lives
------------------
     c_bands:  1 eigenvalues not converged
     ethr =  7.71E-06,  avg # of iterations =  6.2

     total cpu time spent up to now is       25.5 secs

     WARNING: integrated charge=    16.00000387, expected=    16.00000000

     total energy              =     -45.71166347 Ry
     estimated scf accuracy    <       0.00011718 Ry

     iteration #  6     ecut=    30.00 Ry     beta= 0.30
     Davidson diagonalization with overlap

---- Real-time Memory Report at c_bands before calling an iterative solver
            42 MiB given to the printing process from OS
             0 MiB allocation reported by mallinfo(arena+hblkhd)
           223 MiB available memory on the node where the printing process lives
------------------
     c_bands:  1 eigenvalues not converged
     ethr =  7.32E-07,  avg # of iterations =  7.3

     total cpu time spent up to now is       25.7 secs

     WARNING: integrated charge=    16.00000388, expected=    16.00000000

     total energy              =     -45.71170377 Ry
     estimated scf accuracy    <       0.00000932 Ry

     iteration #  7     ecut=    30.00 Ry     beta= 0.30
     Davidson diagonalization with overlap

---- Real-time Memory Report at c_bands before calling an iterative solver
            42 MiB given to the printing process from OS
             0 MiB allocation reported by mallinfo(arena+hblkhd)
           223 MiB available memory on the node where the printing process lives
------------------
     ethr =  5.83E-08,  avg # of iterations =  4.0

     total cpu time spent up to now is       25.8 secs

     WARNING: integrated charge=    16.00000388, expected=    16.00000000

     total energy              =     -45.71170558 Ry
     estimated scf accuracy    <       0.00000088 Ry

     iteration #  8     ecut=    30.00 Ry     beta= 0.30
     Davidson diagonalization with overlap

---- Real-time Memory Report at c_bands before calling an iterative solver
            42 MiB given to the printing process from OS
             0 MiB allocation reported by mallinfo(arena+hblkhd)
           223 MiB available memory on the node where the printing process lives
------------------
     ethr =  5.52E-09,  avg # of iterations =  3.3

     total cpu time spent up to now is       26.0 secs

     WARNING: integrated charge=    16.00000388, expected=    16.00000000

     total energy              =     -45.71170556 Ry
     estimated scf accuracy    <       0.00000056 Ry

     iteration #  9     ecut=    30.00 Ry     beta= 0.30
     Davidson diagonalization with overlap

---- Real-time Memory Report at c_bands before calling an iterative solver
            42 MiB given to the printing process from OS
             0 MiB allocation reported by mallinfo(arena+hblkhd)
           223 MiB available memory on the node where the printing process lives
------------------
     ethr =  3.47E-09,  avg # of iterations =  3.2

     total cpu time spent up to now is       26.1 secs

     WARNING: integrated charge=    16.00000388, expected=    16.00000000

     total energy              =     -45.71170549 Ry
     estimated scf accuracy    <       0.00000103 Ry

     iteration # 10     ecut=    30.00 Ry     beta= 0.30
     Davidson diagonalization with overlap

---- Real-time Memory Report at c_bands before calling an iterative solver
            42 MiB given to the printing process from OS
             0 MiB allocation reported by mallinfo(arena+hblkhd)
           223 MiB available memory on the node where the printing process lives
------------------
     ethr =  3.47E-09,  avg # of iterations =  2.0

     total cpu time spent up to now is       26.3 secs

     WARNING: integrated charge=    16.00000388, expected=    16.00000000

     total energy              =     -45.71170557 Ry
     estimated scf accuracy    <       0.00000004 Ry

     iteration # 11     ecut=    30.00 Ry     beta= 0.30
     Davidson diagonalization with overlap

---- Real-time Memory Report at c_bands before calling an iterative solver
            42 MiB given to the printing process from OS
             0 MiB allocation reported by mallinfo(arena+hblkhd)
           222 MiB available memory on the node where the printing process lives
------------------
     ethr =  2.58E-10,  avg # of iterations =  3.0

     total cpu time spent up to now is       26.4 secs

     WARNING: integrated charge=    16.00000388, expected=    16.00000000

     total energy              =     -45.71170559 Ry
     estimated scf accuracy    <          6.9E-10 Ry

     iteration # 12     ecut=    30.00 Ry     beta= 0.30
     Davidson diagonalization with overlap

---- Real-time Memory Report at c_bands before calling an iterative solver
            42 MiB given to the printing process from OS
             0 MiB allocation reported by mallinfo(arena+hblkhd)
           222 MiB available memory on the node where the printing process lives
------------------
     ethr =  4.30E-12,  avg # of iterations =  4.7

     total cpu time spent up to now is       26.6 secs

     WARNING: integrated charge=    16.00000388, expected=    16.00000000

     total energy              =     -45.71170559 Ry
     estimated scf accuracy    <          3.5E-10 Ry

     iteration # 13     ecut=    30.00 Ry     beta= 0.30
     Davidson diagonalization with overlap

---- Real-time Memory Report at c_bands before calling an iterative solver
            42 MiB given to the printing process from OS
             0 MiB allocation reported by mallinfo(arena+hblkhd)
           222 MiB available memory on the node where the printing process lives
------------------
     ethr =  2.20E-12,  avg # of iterations =  2.0

     total cpu time spent up to now is       26.7 secs

     End of self-consistent calculation

          k = 0.1264 0.2189 0.0966 (   613 PWs)   bands (ev):

   -11.0338 -10.7331   0.1917   1.3409   1.3878   1.9092   2.3214   2.3552
    13.9681  15.6955  16.0800  16.8354

     occupation numbers 
     1.0000   1.0000   1.0000   1.0000   1.0000   1.0000   1.0000   1.0000
     0.0000   0.0000   0.0000   0.0000

          k = 0.1264 0.5107 0.0966 (   623 PWs)   bands (ev):

    -7.4279  -7.1981  -4.5611  -4.3852  -0.0164   0.0717   4.3013   5.4296
     9.4116  10.1784  16.6403  17.0813

     occupation numbers 
     1.0000   1.0000   1.0000   1.0000   1.0000   1.0000   1.0000   1.0000
     0.0000   0.0000   0.0000   0.0000

          k = 0.1264-0.3648 0.0966 (   619 PWs)   bands (ev):

    -9.5594  -9.2862  -1.4889  -1.3684   0.7626   0.8375   1.9598   3.5366
    12.4888  13.1379  15.6615  16.9662

     occupation numbers 
     1.0000   1.0000   1.0000   1.0000   1.0000   1.0000   1.0000   1.0000
     0.0000   0.0000   0.0000   0.0000

          k = 0.1264-0.0730 0.0966 (   595 PWs)   bands (ev):

   -11.7818 -11.4670  -0.7212   1.0511   3.1140   3.1669   3.7589   3.7976
    13.1041  16.0435  16.1946  17.5244

     occupation numbers 
     1.0000   1.0000   1.0000   1.0000   1.0000   1.0000   1.0000   1.0000
     0.0000   0.0000   0.0000   0.0000

          k = 0.3791 0.6567 0.0966 (   622 PWs)   bands (ev):

    -5.7148  -5.6041  -4.9377  -4.8806  -2.4023  -2.2827   6.0642   6.6890
     8.4801   8.6292  18.0230  18.2398

     occupation numbers 
     1.0000   1.0000   1.0000   1.0000   1.0000   1.0000   1.0000   1.0000
     0.0000   0.0000   0.0000   0.0000

          k = 0.3791-0.2189 0.0966 (   616 PWs)   bands (ev):

    -8.8329  -8.5733  -3.2307  -3.0688   1.3755   1.4338   2.7782   4.2313
    10.8950  11.8395  15.3054  15.6449

     occupation numbers 
     1.0000   1.0000   1.0000   1.0000   1.0000   1.0000   1.0000   1.0000
     0.0000   0.0000   0.0000   0.0000

     the Fermi energy is     7.7670 ev

     WARNING: integrated charge=    16.00000388, expected=    16.00000000

!    total energy              =     -45.71170559 Ry
     estimated scf accuracy    <          4.5E-12 Ry
     smearing contrib. (-TS)   =       0.00000006 Ry
     internal energy E=F+TS    =     -45.71170565 Ry

     The total energy is F=E-TS. E is the sum of the following terms:
     one-electron contribution =      -7.86200655 Ry
     hartree contribution      =      12.11667114 Ry
     xc contribution           =     -13.99733874 Ry
     ewald contribution        =     -35.96903150 Ry

     convergence has been achieved in  13 iterations

     Forces acting on atoms (cartesian axes, Ry/au):

     atom    1 type  1   force =     0.00000000    0.00000000    0.00000000
     atom    2 type  1   force =     0.00000000    0.00000000    0.00000000
     atom    3 type  1   force =    -0.00000000   -0.00000000   -0.00000000
     atom    4 type  1   force =     0.00000000   -0.00000000   -0.00000000
     The non-local contrib.  to forces
     atom    1 type  1   force =     0.00000000    0.00000000    0.00000000
     atom    2 type  1   force =     0.00000000    0.00000000    0.00000000
     atom    3 type  1   force =     0.00000000    0.00000000    0.00000000
     atom    4 type  1   force =    -0.00000000    0.00000000   -0.00000000
     The ionic contribution  to forces
     atom    1 type  1   force =     0.00000871   -0.00000503   -0.00000000
     atom    2 type  1   force =    -0.00000874    0.00000505   -0.00000000
     atom    3 type  1   force =    -0.00000871    0.00000503    0.00000000
     atom    4 type  1   force =     0.00000874   -0.00000505    0.00000000
     The local contribution  to forces
     atom    1 type  1   force =    -0.00000000    0.00000000   -0.00000000
     atom    2 type  1   force =    -0.00000666    0.00000384   -0.00000000
     atom    3 type  1   force =    -0.00000000   -0.00000000   -0.00000000
     atom    4 type  1   force =     0.00000666   -0.00000384   -0.00000000
     The core correction contribution to forces
     atom    1 type  1   force =     0.00000000    0.00000000    0.00000000
     atom    2 type  1   force =     0.00000000    0.00000000    0.00000000
     atom    3 type  1   force =     0.00000000    0.00000000    0.00000000
     atom    4 type  1   force =     0.00000000    0.00000000    0.00000000
     The Hubbard contrib.    to forces
     atom    1 type  1   force =     0.00000000    0.00000000    0.00000000
     atom    2 type  1   force =     0.00000000    0.00000000    0.00000000
     atom    3 type  1   force =     0.00000000    0.00000000    0.00000000
     atom    4 type  1   force =     0.00000000    0.00000000    0.00000000
     The SCF correction term to forces
     atom    1 type  1   force =     0.00000000   -0.00000000    0.00000000
     atom    2 type  1   force =    -0.00000000    0.00000000   -0.00000000
     atom    3 type  1   force =    -0.00000000    0.00000000   -0.00000000
     atom    4 type  1   force =     0.00000000   -0.00000000    0.00000000

     Total force =     0.000000     Total SCF correction =     0.000000


     Computing stress (Cartesian axis) and pressure

          total   stress  (Ry/bohr**3)                   (kbar)     P=       -1.80
  -0.00001162   0.00000000  -0.00000000           -1.71        0.00       -0.00
   0.00000000  -0.00001162   0.00000000            0.00       -1.71        0.00
   0.00000000  -0.00000000  -0.00001338            0.00       -0.00       -1.97

     kinetic stress (kbar)  11846.17      0.00      0.00
                                0.00  11846.17     -0.00
                                0.00     -0.00  13580.29

     local   stress (kbar) -22763.90      0.01     -0.00
                                0.01 -22763.89     -0.00
                               -0.00     -0.00  20693.78

     nonloc. stress (kbar)   4144.10     -0.00      0.00
                                0.00   4144.10     -0.00
                                0.00     -0.00   3629.30

     hartree stress (kbar)   6970.66     -0.00      0.00
                               -0.00   6970.66      0.00
                                0.00      0.00  -5912.92

     exc-cor stress (kbar)  -2852.37      0.00      0.00
                                0.00  -2852.37      0.00
                                0.00      0.00  -2852.37

     corecor stress (kbar)      0.00      0.00      0.00
                                0.00      0.00      0.00
                                0.00      0.00      0.00

     ewald   stress (kbar)   2653.64     -0.03     -0.00
                               -0.03   2653.61     -0.00
                               -0.00     -0.00 -29140.05

     hubbard stress (kbar)      0.00      0.00      0.00
                                0.00      0.00      0.00
                                0.00      0.00      0.00

     DFT-D   stress (kbar)      0.00      0.00      0.00
                                0.00      0.00      0.00
                                0.00      0.00      0.00

     XDM     stress (kbar)      0.00      0.00      0.00
                                0.00      0.00      0.00
                                0.00      0.00      0.00

     dft-nl  stress (kbar)      0.00      0.00      0.00
                                0.00      0.00      0.00
                                0.00      0.00      0.00

     TS-vdW  stress (kbar)      0.00      0.00      0.00
                                0.00      0.00      0.00
                                0.00      0.00      0.00


                                0.00      0.00      0.00
                                0.00      0.00      0.00


                                0.00      0.00      0.00


     Writing all to output data dir ././graphite_lda.save/

     init_run     :      1.47s CPU      1.52s WALL (       2 calls)
     electrons    :     14.05s CPU     14.72s WALL (       9 calls)
     update_pot   :      4.37s CPU      4.43s WALL (       7 calls)
     forces       :      2.57s CPU      2.63s WALL (       9 calls)
     stress       :      3.82s CPU      3.90s WALL (       9 calls)

     Called by init_run:
     wfcinit      :      0.12s CPU      0.13s WALL (       2 calls)
     wfcinit:atom :      0.00s CPU      0.00s WALL (      12 calls)
     wfcinit:wfcr :      0.11s CPU      0.12s WALL (      12 calls)
     potinit      :      0.50s CPU      0.51s WALL (       2 calls)
     hinit0       :      0.82s CPU      0.83s WALL (       2 calls)

     Called by electrons:
     c_bands      :     10.11s CPU     10.59s WALL (      96 calls)
     sum_band     :      2.34s CPU      2.45s WALL (      96 calls)
     v_of_rho     :      0.26s CPU      0.27s WALL (     100 calls)
     v_h          :      0.08s CPU      0.08s WALL (     100 calls)
     v_xc         :      0.18s CPU      0.19s WALL (     100 calls)
     newd         :      1.12s CPU      1.16s WALL (     100 calls)
     mix_rho      :      0.17s CPU      0.18s WALL (      96 calls)

     Called by c_bands:
     init_us_2    :      0.16s CPU      0.18s WALL (    1272 calls)
     init_us_2:cp :      0.16s CPU      0.17s WALL (    1272 calls)
     cegterg      :      9.83s CPU     10.27s WALL (     576 calls)

     Called by sum_band:
     sum_band:wei :      0.01s CPU      0.01s WALL (      96 calls)
     sum_band:loo :      1.30s CPU      1.37s WALL (      96 calls)
     sum_band:buf :      0.01s CPU      0.01s WALL (     576 calls)
     sum_band:ini :      0.07s CPU      0.08s WALL (     576 calls)
     sum_band:cal :      0.18s CPU      0.19s WALL (     576 calls)
     sum_band:bec :      0.00s CPU      0.00s WALL (     576 calls)
     addusdens    :      0.78s CPU      0.82s WALL (      96 calls)
     addusd:skk   :      0.02s CPU      0.02s WALL (      96 calls)
     addusd:dgemm :      0.29s CPU      0.31s WALL (      96 calls)
     addusd:qvan2 :      0.29s CPU      0.31s WALL (      96 calls)

     Called by *egterg:
     cdiaghg      :      0.34s CPU      0.35s WALL (    2318 calls)
     cegterg:over :      0.51s CPU      0.53s WALL (    1814 calls)
     cegterg:upda :      0.26s CPU      0.27s WALL (    1814 calls)
     cegterg:last :      0.57s CPU      0.60s WALL (    1318 calls)
     h_psi        :      7.51s CPU      7.87s WALL (    2402 calls)
     s_psi        :      0.46s CPU      0.48s WALL (    2402 calls)
     g_psi        :      0.03s CPU      0.03s WALL (    1814 calls)

     Called by h_psi:
     h_psi:calbec :      0.58s CPU      0.60s WALL (    2402 calls)
     vloc_psi     :      6.43s CPU      6.73s WALL (    2402 calls)
     add_vuspsi   :      0.47s CPU      0.50s WALL (    2402 calls)

     General routines
     calbec       :      0.84s CPU      0.88s WALL (    3248 calls)
     fft          :      0.39s CPU      0.40s WALL (     639 calls)
     ffts         :      0.05s CPU      0.06s WALL (     196 calls)
     fftw         :      6.71s CPU      7.03s WALL (   46762 calls)
     interpolate  :      0.10s CPU      0.10s WALL (     100 calls)

     Parallel routines

     PWSCF        :     26.45s CPU     27.40s WALL


   This run was terminated on:   9:45:29   2Feb2022            

=------------------------------------------------------------------------------=
   JOB DONE.
=------------------------------------------------------------------------------=
