
     Program PWSCF v.7.0 starts on  2Feb2022 at  8:44: 4 

     This program is part of the open-source Quantum ESPRESSO suite
     for quantum simulation of materials; please cite
         "P. Giannozzi et al., J. Phys.:Condens. Matter 21 395502 (2009);
         "P. Giannozzi et al., J. Phys.:Condens. Matter 29 465901 (2017);
         "P. Giannozzi et al., J. Chem. Phys. 152 154105 (2020);
          URL http://www.quantum-espresso.org", 
     in publications or presentations arising from this work. More details at
     http://www.quantum-espresso.org/quote

     Parallel version (MPI), running on     1 processors

     MPI processes distributed on     1 nodes
     192 MiB available memory on the printing compute node when the environment starts

     Reading input from 01-graphite-vdw.in

     Current dimensions of program PWSCF are:
     Max number of different atomic species (ntypx) = 10
     Max number of k-points (npk) =  40000
     Max angular momentum in pseudopotentials (lmaxx) =  4
     file C.pbe-rrkjus.UPF: wavefunction(s)  2S 2P renormalized

     IMPORTANT: XC functional enforced from input :
     Exchange-correlation= VDW-DF-CX
                           (   1   4  27   0   1   0   0)
     Any further DFT definition will be discarded
     Please, verify this is what you really want


     Subspace diagonalization in iterative solution of the eigenvalue problem:
     a serial algorithm will be used


     G-vector sticks info
     --------------------
     sticks:   dense  smooth     PW     G-vecs:    dense   smooth      PW
     Sum         361     187     61                14339     5053    1045

     Using Slab Decomposition



     bravais-lattice index     =            4
     lattice parameter (alat)  =       4.6601  a.u.
     unit-cell volume          =     227.8448 (a.u.)^3
     number of atoms/cell      =            4
     number of atomic types    =            1
     number of electrons       =        16.00
     number of Kohn-Sham states=           12
     kinetic-energy cutoff     =      30.0000  Ry
     charge density cutoff     =     240.0000  Ry
     scf convergence threshold =      1.0E-09
     mixing beta               =       0.3000
     number of iterations used =            8  plain     mixing
     energy convergence thresh.=      1.0E-04
     force convergence thresh. =      1.0E-03
     press convergence thresh. =      5.0E-01
     Exchange-correlation= VDW-DF-CX
                           (   1   4  27   0   1   0   0)
     nstep                     =           50


     celldm(1)=   4.660065  celldm(2)=   0.000000  celldm(3)=   2.599757
     celldm(4)=   0.000000  celldm(5)=   0.000000  celldm(6)=   0.000000

     crystal axes: (cart. coord. in units of alat)
               a(1) = (   1.000000   0.000000   0.000000 )  
               a(2) = (  -0.500000   0.866025   0.000000 )  
               a(3) = (   0.000000   0.000000   2.599757 )  

     reciprocal axes: (cart. coord. in units 2 pi/alat)
               b(1) = (  1.000000  0.577350 -0.000000 )  
               b(2) = (  0.000000  1.154701  0.000000 )  
               b(3) = (  0.000000 -0.000000  0.384651 )  


     PseudoPot. # 1 for C  read from file:
     /home/user/pseudo_dir/C.pbe-rrkjus.UPF
     MD5 check sum: 00fb224312de0c5b6853bd333518df6f
     Pseudo is Ultrasoft, Zval =  4.0
     Generated by new atomic code, or converted to UPF format
     Using radial grid of  627 points,  4 beta functions with: 
                l(1) =   0
                l(2) =   0
                l(3) =   1
                l(4) =   1
     Q(r) pseudized with 0 coefficients 


     atomic species   valence    mass     pseudopotential
        C              4.00    12.01100     C ( 1.00)

     24 Sym. Ops., with inversion, found (12 have fractional translation)


                                    s                        frac. trans.

      isym =  1     identity                                     

 cryst.   s( 1) = (     1          0          0      )
                  (     0          1          0      )
                  (     0          0          1      )

 cart.    s( 1) = (  1.0000000  0.0000000  0.0000000 )
                  (  0.0000000  1.0000000  0.0000000 )
                  (  0.0000000  0.0000000  1.0000000 )


      isym =  2     180 deg rotation - cart. axis [0,0,1]        

 cryst.   s( 2) = (    -1          0          0      )    f =(  0.0000000 )
                  (     0         -1          0      )       (  0.0000000 )
                  (     0          0          1      )       (  0.5000000 )

 cart.    s( 2) = ( -1.0000000  0.0000000  0.0000000 )    f =(  0.0000000 )
                  (  0.0000000 -1.0000000  0.0000000 )       (  0.0000000 )
                  (  0.0000000  0.0000000  1.0000000 )       (  1.2998783 )


      isym =  3     180 deg rotation - cart. axis [0,1,0]        

 cryst.   s( 3) = (    -1          0          0      )    f =(  0.0000000 )
                  (     1          1          0      )       (  0.0000000 )
                  (     0          0         -1      )       (  0.5000000 )

 cart.    s( 3) = ( -1.0000000  0.0000000  0.0000000 )    f =(  0.0000000 )
                  (  0.0000000  1.0000000  0.0000000 )       (  0.0000000 )
                  (  0.0000000  0.0000000 -1.0000000 )       (  1.2998783 )


      isym =  4     180 deg rotation - cart. axis [1,0,0]        

 cryst.   s( 4) = (     1          0          0      )
                  (    -1         -1          0      )
                  (     0          0         -1      )

 cart.    s( 4) = (  1.0000000  0.0000000  0.0000000 )
                  (  0.0000000 -1.0000000  0.0000000 )
                  (  0.0000000  0.0000000 -1.0000000 )


      isym =  5      60 deg rotation - cryst. axis [0,0,1]       

 cryst.   s( 5) = (     1          1          0      )    f =(  0.0000000 )
                  (    -1          0          0      )       (  0.0000000 )
                  (     0          0          1      )       (  0.5000000 )

 cart.    s( 5) = (  0.5000000 -0.8660254  0.0000000 )    f =(  0.0000000 )
                  (  0.8660254  0.5000000  0.0000000 )       (  0.0000000 )
                  (  0.0000000  0.0000000  1.0000000 )       (  1.2998783 )


      isym =  6      60 deg rotation - cryst. axis [0,0,-1]      

 cryst.   s( 6) = (     0         -1          0      )    f =(  0.0000000 )
                  (     1          1          0      )       (  0.0000000 )
                  (     0          0          1      )       (  0.5000000 )

 cart.    s( 6) = (  0.5000000  0.8660254  0.0000000 )    f =(  0.0000000 )
                  ( -0.8660254  0.5000000  0.0000000 )       (  0.0000000 )
                  (  0.0000000  0.0000000  1.0000000 )       (  1.2998783 )


      isym =  7     120 deg rotation - cryst. axis [0,0,1]       

 cryst.   s( 7) = (     0          1          0      )
                  (    -1         -1          0      )
                  (     0          0          1      )

 cart.    s( 7) = ( -0.5000000 -0.8660254  0.0000000 )
                  (  0.8660254 -0.5000000  0.0000000 )
                  (  0.0000000  0.0000000  1.0000000 )


      isym =  8     120 deg rotation - cryst. axis [0,0,-1]      

 cryst.   s( 8) = (    -1         -1          0      )
                  (     1          0          0      )
                  (     0          0          1      )

 cart.    s( 8) = ( -0.5000000  0.8660254  0.0000000 )
                  ( -0.8660254 -0.5000000  0.0000000 )
                  (  0.0000000  0.0000000  1.0000000 )


      isym =  9     180 deg rotation - cryst. axis [1,-1,0]      

 cryst.   s( 9) = (     0         -1          0      )    f =(  0.0000000 )
                  (    -1          0          0      )       (  0.0000000 )
                  (     0          0         -1      )       (  0.5000000 )

 cart.    s( 9) = (  0.5000000 -0.8660254  0.0000000 )    f =(  0.0000000 )
                  ( -0.8660254 -0.5000000  0.0000000 )       (  0.0000000 )
                  (  0.0000000  0.0000000 -1.0000000 )       (  1.2998783 )


      isym = 10     180 deg rotation - cryst. axis [2,1,0]       

 cryst.   s(10) = (     1          1          0      )    f =(  0.0000000 )
                  (     0         -1          0      )       (  0.0000000 )
                  (     0          0         -1      )       (  0.5000000 )

 cart.    s(10) = (  0.5000000  0.8660254  0.0000000 )    f =(  0.0000000 )
                  (  0.8660254 -0.5000000  0.0000000 )       (  0.0000000 )
                  (  0.0000000  0.0000000 -1.0000000 )       (  1.2998783 )


      isym = 11     180 deg rotation - cryst. axis [0,1,0]       

 cryst.   s(11) = (    -1         -1          0      )
                  (     0          1          0      )
                  (     0          0         -1      )

 cart.    s(11) = ( -0.5000000 -0.8660254  0.0000000 )
                  ( -0.8660254  0.5000000  0.0000000 )
                  (  0.0000000  0.0000000 -1.0000000 )


      isym = 12     180 deg rotation - cryst. axis [1,1,0]       

 cryst.   s(12) = (     0          1          0      )
                  (     1          0          0      )
                  (     0          0         -1      )

 cart.    s(12) = ( -0.5000000  0.8660254  0.0000000 )
                  (  0.8660254  0.5000000  0.0000000 )
                  (  0.0000000  0.0000000 -1.0000000 )


      isym = 13     inversion                                    

 cryst.   s(13) = (    -1          0          0      )
                  (     0         -1          0      )
                  (     0          0         -1      )

 cart.    s(13) = ( -1.0000000  0.0000000  0.0000000 )
                  (  0.0000000 -1.0000000  0.0000000 )
                  (  0.0000000  0.0000000 -1.0000000 )


      isym = 14     inv. 180 deg rotation - cart. axis [0,0,1]   

 cryst.   s(14) = (     1          0          0      )    f =(  0.0000000 )
                  (     0          1          0      )       (  0.0000000 )
                  (     0          0         -1      )       (  0.5000000 )

 cart.    s(14) = (  1.0000000  0.0000000  0.0000000 )    f =(  0.0000000 )
                  (  0.0000000  1.0000000  0.0000000 )       (  0.0000000 )
                  (  0.0000000  0.0000000 -1.0000000 )       (  1.2998783 )


      isym = 15     inv. 180 deg rotation - cart. axis [0,1,0]   

 cryst.   s(15) = (     1          0          0      )    f =(  0.0000000 )
                  (    -1         -1          0      )       (  0.0000000 )
                  (     0          0          1      )       (  0.5000000 )

 cart.    s(15) = (  1.0000000  0.0000000  0.0000000 )    f =(  0.0000000 )
                  (  0.0000000 -1.0000000  0.0000000 )       (  0.0000000 )
                  (  0.0000000  0.0000000  1.0000000 )       (  1.2998783 )


      isym = 16     inv. 180 deg rotation - cart. axis [1,0,0]   

 cryst.   s(16) = (    -1          0          0      )
                  (     1          1          0      )
                  (     0          0          1      )

 cart.    s(16) = ( -1.0000000  0.0000000  0.0000000 )
                  (  0.0000000  1.0000000  0.0000000 )
                  (  0.0000000  0.0000000  1.0000000 )


      isym = 17     inv.  60 deg rotation - cryst. axis [0,0,1]  

 cryst.   s(17) = (    -1         -1          0      )    f =(  0.0000000 )
                  (     1          0          0      )       (  0.0000000 )
                  (     0          0         -1      )       (  0.5000000 )

 cart.    s(17) = ( -0.5000000  0.8660254  0.0000000 )    f =(  0.0000000 )
                  ( -0.8660254 -0.5000000  0.0000000 )       (  0.0000000 )
                  (  0.0000000  0.0000000 -1.0000000 )       (  1.2998783 )


      isym = 18     inv.  60 deg rotation - cryst. axis [0,0,-1] 

 cryst.   s(18) = (     0          1          0      )    f =(  0.0000000 )
                  (    -1         -1          0      )       (  0.0000000 )
                  (     0          0         -1      )       (  0.5000000 )

 cart.    s(18) = ( -0.5000000 -0.8660254  0.0000000 )    f =(  0.0000000 )
                  (  0.8660254 -0.5000000  0.0000000 )       (  0.0000000 )
                  (  0.0000000  0.0000000 -1.0000000 )       (  1.2998783 )


      isym = 19     inv. 120 deg rotation - cryst. axis [0,0,1]  

 cryst.   s(19) = (     0         -1          0      )
                  (     1          1          0      )
                  (     0          0         -1      )

 cart.    s(19) = (  0.5000000  0.8660254  0.0000000 )
                  ( -0.8660254  0.5000000  0.0000000 )
                  (  0.0000000  0.0000000 -1.0000000 )


      isym = 20     inv. 120 deg rotation - cryst. axis [0,0,-1] 

 cryst.   s(20) = (     1          1          0      )
                  (    -1          0          0      )
                  (     0          0         -1      )

 cart.    s(20) = (  0.5000000 -0.8660254  0.0000000 )
                  (  0.8660254  0.5000000  0.0000000 )
                  (  0.0000000  0.0000000 -1.0000000 )


      isym = 21     inv. 180 deg rotation - cryst. axis [1,-1,0] 

 cryst.   s(21) = (     0          1          0      )    f =(  0.0000000 )
                  (     1          0          0      )       (  0.0000000 )
                  (     0          0          1      )       (  0.5000000 )

 cart.    s(21) = ( -0.5000000  0.8660254  0.0000000 )    f =(  0.0000000 )
                  (  0.8660254  0.5000000  0.0000000 )       (  0.0000000 )
                  (  0.0000000  0.0000000  1.0000000 )       (  1.2998783 )


      isym = 22     inv. 180 deg rotation - cryst. axis [2,1,0]  

 cryst.   s(22) = (    -1         -1          0      )    f =(  0.0000000 )
                  (     0          1          0      )       (  0.0000000 )
                  (     0          0          1      )       (  0.5000000 )

 cart.    s(22) = ( -0.5000000 -0.8660254  0.0000000 )    f =(  0.0000000 )
                  ( -0.8660254  0.5000000  0.0000000 )       (  0.0000000 )
                  (  0.0000000  0.0000000  1.0000000 )       (  1.2998783 )


      isym = 23     inv. 180 deg rotation - cryst. axis [0,1,0]  

 cryst.   s(23) = (     1          1          0      )
                  (     0         -1          0      )
                  (     0          0          1      )

 cart.    s(23) = (  0.5000000  0.8660254  0.0000000 )
                  (  0.8660254 -0.5000000  0.0000000 )
                  (  0.0000000  0.0000000  1.0000000 )


      isym = 24     inv. 180 deg rotation - cryst. axis [1,1,0]  

 cryst.   s(24) = (     0         -1          0      )
                  (    -1          0          0      )
                  (     0          0          1      )

 cart.    s(24) = (  0.5000000 -0.8660254  0.0000000 )
                  ( -0.8660254 -0.5000000  0.0000000 )
                  (  0.0000000  0.0000000  1.0000000 )


     point group D_6h(6/mmm)
     there are 12 classes
     the character table:

       E     2C6   2C3   C2    3C2'  3C2'' i     2S3   2S6   s_h   3s_d  3s_v 
A_1g   1.00  1.00  1.00  1.00  1.00  1.00  1.00  1.00  1.00  1.00  1.00  1.00
A_2g   1.00  1.00  1.00  1.00 -1.00 -1.00  1.00  1.00  1.00  1.00 -1.00 -1.00
B_1g   1.00 -1.00  1.00 -1.00  1.00 -1.00  1.00 -1.00  1.00 -1.00  1.00 -1.00
B_2g   1.00 -1.00  1.00 -1.00 -1.00  1.00  1.00 -1.00  1.00 -1.00 -1.00  1.00
E_1g   2.00  1.00 -1.00 -2.00  0.00  0.00  2.00  1.00 -1.00 -2.00  0.00  0.00
E_2g   2.00 -1.00 -1.00  2.00  0.00  0.00  2.00 -1.00 -1.00  2.00  0.00  0.00
A_1u   1.00  1.00  1.00  1.00  1.00  1.00 -1.00 -1.00 -1.00 -1.00 -1.00 -1.00
A_2u   1.00  1.00  1.00  1.00 -1.00 -1.00 -1.00 -1.00 -1.00 -1.00  1.00  1.00
B_1u   1.00 -1.00  1.00 -1.00  1.00 -1.00 -1.00  1.00 -1.00  1.00 -1.00  1.00
B_2u   1.00 -1.00  1.00 -1.00 -1.00  1.00 -1.00  1.00 -1.00  1.00  1.00 -1.00
E_1u   2.00  1.00 -1.00 -2.00  0.00  0.00 -2.00 -1.00  1.00  2.00  0.00  0.00
E_2u   2.00 -1.00 -1.00  2.00  0.00  0.00 -2.00  1.00  1.00 -2.00  0.00  0.00

     the symmetry operations in each class and the name of the first element:

     E        1
          identity                                               
     2C6      5    6
           60 deg rotation - cryst. axis [0,0,1]                 
     2C3      7    8
          120 deg rotation - cryst. axis [0,0,1]                 
     C2       2
          180 deg rotation - cart. axis [0,0,1]                  
     3C2'     4   12   11
          180 deg rotation - cart. axis [1,0,0]                  
     3C2''    3    9   10
          180 deg rotation - cart. axis [0,1,0]                  
     i       13
          inversion                                              
     2S3     17   18
          inv.  60 deg rotation - cryst. axis [0,0,1]            
     2S6     19   20
          inv. 120 deg rotation - cryst. axis [0,0,1]            
     s_h     14
          inv. 180 deg rotation - cart. axis [0,0,1]             
     3s_d    16   24   23
          inv. 180 deg rotation - cart. axis [1,0,0]             
     3s_v    15   21   22
          inv. 180 deg rotation - cart. axis [0,1,0]             

   Cartesian axes

     site n.     atom                  positions (alat units)
         1           C   tau(   1) = (  -0.5000000   0.8660254   1.9498175  )
         2           C   tau(   2) = (   0.5000005   0.2886748   1.9498175  )
         3           C   tau(   3) = (  -0.5000000   0.8660254   0.6499392  )
         4           C   tau(   4) = (  -0.0000005   0.5773506   0.6499392  )

   Crystallographic axes

     site n.     atom                  positions (cryst. coord.)
         1           C   tau(   1) = (  0.0000000  1.0000000  0.7500000  )
         2           C   tau(   2) = (  0.6666670  0.3333330  0.7500000  )
         3           C   tau(   3) = (  0.0000000  1.0000000  0.2500000  )
         4           C   tau(   4) = (  0.3333330  0.6666670  0.2500000  )

     number of k points=     6  Marzari-Vanderbilt smearing, width (Ry)=  0.0200
                       cart. coord. in units 2pi/alat
        k(    1) = (   0.1250000   0.2165064   0.0961628), wk =   0.2500000
        k(    2) = (   0.1250000   0.5051815   0.0961628), wk =   0.5000000
        k(    3) = (   0.1250000  -0.3608439   0.0961628), wk =   0.5000000
        k(    4) = (   0.1250000  -0.0721688   0.0961628), wk =   0.2500000
        k(    5) = (   0.3750000   0.6495191   0.0961628), wk =   0.2500000
        k(    6) = (   0.3750000  -0.2165064   0.0961628), wk =   0.2500000

                       cryst. coord.
        k(    1) = (   0.1250000   0.1250000   0.2500000), wk =   0.2500000
        k(    2) = (   0.1250000   0.3750000   0.2500000), wk =   0.5000000
        k(    3) = (   0.1250000  -0.3750000   0.2500000), wk =   0.5000000
        k(    4) = (   0.1250000  -0.1250000   0.2500000), wk =   0.2500000
        k(    5) = (   0.3750000   0.3750000   0.2500000), wk =   0.2500000
        k(    6) = (   0.3750000  -0.3750000   0.2500000), wk =   0.2500000

     Dense  grid:    14339 G-vectors     FFT dimensions: (  24,  24,  60)

     Smooth grid:     5053 G-vectors     FFT dimensions: (  18,  18,  48)

     Dynamical RAM for                 wfc:       0.12 MB

     Dynamical RAM for     wfc (w. buffer):       0.81 MB

     Dynamical RAM for           str. fact:       0.22 MB

     Dynamical RAM for           local pot:       0.00 MB

     Dynamical RAM for          nlocal pot:       0.31 MB

     Dynamical RAM for                qrad:       0.71 MB

     Dynamical RAM for          rho,v,vnew:       1.45 MB

     Dynamical RAM for               rhoin:       0.48 MB

     Dynamical RAM for            rho*nmix:       3.50 MB

     Dynamical RAM for           G-vectors:       0.86 MB

     Dynamical RAM for          h,s,v(r/c):       0.03 MB

     Dynamical RAM for          <psi|beta>:       0.01 MB

     Dynamical RAM for                 psi:       0.23 MB

     Dynamical RAM for                hpsi:       0.23 MB

     Dynamical RAM for                spsi:       0.23 MB

     Dynamical RAM for      wfcinit/wfcrot:       0.31 MB

     Dynamical RAM for           addusdens:      10.28 MB

     Dynamical RAM for          addusforce:      11.71 MB

     Dynamical RAM for         addusstress:      10.94 MB

     Estimated static dynamical RAM per process >       6.59 MB

     Estimated max dynamical RAM per process >      21.80 MB

     Initial potential from superposition of free atoms

     starting charge      15.9998, renormalised to      16.0000


     %%%%%%%%%%%%%%%%%%%%%%%%%%%%%%%%%%%%%%%%%%%%%%%%%%%%%%%%%%%%%%%%%%%%%%%%
     %                                                                      %
     % You are using vdW-DF, which was implemented by the Thonhauser group. %
     % Please cite the following two papers that made this development      %
     % possible and the two reviews that describe the various versions:     %
     %                                                                      %
     %   T. Thonhauser et al., PRL 115, 136402 (2015).                      %
     %   T. Thonhauser et al., PRB 76, 125112 (2007).                       %
     %   K. Berland et al., Rep. Prog. Phys. 78, 066501 (2015).             %
     %   D.C. Langreth et al., J. Phys.: Condens. Matter 21, 084203 (2009). %
     %                                                                      %
     %                                                                      %
     % If you are calculating the stress with vdW-DF, please also cite:     %
     %                                                                      %
     %   R. Sabatini et al., J. Phys.: Condens. Matter 24, 424209 (2012).   %
     %                                                                      %
     %%%%%%%%%%%%%%%%%%%%%%%%%%%%%%%%%%%%%%%%%%%%%%%%%%%%%%%%%%%%%%%%%%%%%%%%


     Carrying out vdW-DF run using the following parameters:
     Nqs    =  20  Npoints =  1024  r_max =  100.000
     q_mesh =  0.00001000  0.04494208  0.09755937  0.15916263
               0.23128650  0.31572767  0.41458969  0.53033537
               0.66584808  0.82450364  1.01025438  1.22772762
               1.48234092  1.78043706  2.12944203  2.53805004
               3.01644009  3.57652955  4.23227104  5.00000000


     -----------------------------------------------
     Non-local corr. energy    =       0.11532865 Ry
     -----------------------------------------------

     Starting wfcs are   16 randomized atomic wfcs

     total cpu time spent up to now is       73.1 secs

     Self-consistent Calculation

     iteration #  1     ecut=    30.00 Ry     beta= 0.30
     Davidson diagonalization with overlap

---- Real-time Memory Report at c_bands before calling an iterative solver
            56 MiB given to the printing process from OS
             0 MiB allocation reported by mallinfo(arena+hblkhd)
           163 MiB available memory on the node where the printing process lives
------------------
     ethr =  1.00E-02,  avg # of iterations =  2.7


     -----------------------------------------------
     Non-local corr. energy    =       0.12727167 Ry
     -----------------------------------------------


     total cpu time spent up to now is       73.4 secs

     WARNING: integrated charge=    16.00000262, expected=    16.00000000

     total energy              =     -45.61648980 Ry
     estimated scf accuracy    <       0.35609367 Ry

     iteration #  2     ecut=    30.00 Ry     beta= 0.30
     Davidson diagonalization with overlap

---- Real-time Memory Report at c_bands before calling an iterative solver
            58 MiB given to the printing process from OS
             0 MiB allocation reported by mallinfo(arena+hblkhd)
           162 MiB available memory on the node where the printing process lives
------------------
     ethr =  2.23E-03,  avg # of iterations =  1.0


     -----------------------------------------------
     Non-local corr. energy    =       0.14646247 Ry
     -----------------------------------------------


     total cpu time spent up to now is       73.6 secs

     WARNING: integrated charge=    16.00000652, expected=    16.00000000

     total energy              =     -45.55197582 Ry
     estimated scf accuracy    <       0.12854742 Ry

     iteration #  3     ecut=    30.00 Ry     beta= 0.30
     Davidson diagonalization with overlap

---- Real-time Memory Report at c_bands before calling an iterative solver
            58 MiB given to the printing process from OS
             0 MiB allocation reported by mallinfo(arena+hblkhd)
           162 MiB available memory on the node where the printing process lives
------------------
     ethr =  8.03E-04,  avg # of iterations =  4.3


     -----------------------------------------------
     Non-local corr. energy    =       0.14200010 Ry
     -----------------------------------------------


     total cpu time spent up to now is       73.9 secs

     WARNING: integrated charge=    16.00000599, expected=    16.00000000

     total energy              =     -45.57295604 Ry
     estimated scf accuracy    <       0.00262938 Ry

     iteration #  4     ecut=    30.00 Ry     beta= 0.30
     Davidson diagonalization with overlap

---- Real-time Memory Report at c_bands before calling an iterative solver
            59 MiB given to the printing process from OS
             0 MiB allocation reported by mallinfo(arena+hblkhd)
           160 MiB available memory on the node where the printing process lives
------------------
     ethr =  1.64E-05,  avg # of iterations =  3.8


     -----------------------------------------------
     Non-local corr. energy    =       0.14504270 Ry
     -----------------------------------------------


     total cpu time spent up to now is       74.2 secs

     WARNING: integrated charge=    16.00000658, expected=    16.00000000

     total energy              =     -45.57243987 Ry
     estimated scf accuracy    <       0.00293721 Ry

     iteration #  5     ecut=    30.00 Ry     beta= 0.30
     Davidson diagonalization with overlap

---- Real-time Memory Report at c_bands before calling an iterative solver
            59 MiB given to the printing process from OS
             0 MiB allocation reported by mallinfo(arena+hblkhd)
           160 MiB available memory on the node where the printing process lives
------------------
     ethr =  1.64E-05,  avg # of iterations =  2.0


     -----------------------------------------------
     Non-local corr. energy    =       0.14506211 Ry
     -----------------------------------------------


     total cpu time spent up to now is       74.4 secs

     WARNING: integrated charge=    16.00000659, expected=    16.00000000

     total energy              =     -45.57287137 Ry
     estimated scf accuracy    <       0.00000247 Ry

     iteration #  6     ecut=    30.00 Ry     beta= 0.30
     Davidson diagonalization with overlap

---- Real-time Memory Report at c_bands before calling an iterative solver
            59 MiB given to the printing process from OS
             0 MiB allocation reported by mallinfo(arena+hblkhd)
           160 MiB available memory on the node where the printing process lives
------------------
     c_bands:  1 eigenvalues not converged
     ethr =  1.54E-08,  avg # of iterations =  7.0


     -----------------------------------------------
     Non-local corr. energy    =       0.14500903 Ry
     -----------------------------------------------


     total cpu time spent up to now is       74.7 secs

     WARNING: integrated charge=    16.00000659, expected=    16.00000000

     total energy              =     -45.57287411 Ry
     estimated scf accuracy    <       0.00000243 Ry

     iteration #  7     ecut=    30.00 Ry     beta= 0.30
     Davidson diagonalization with overlap

---- Real-time Memory Report at c_bands before calling an iterative solver
            59 MiB given to the printing process from OS
             0 MiB allocation reported by mallinfo(arena+hblkhd)
           160 MiB available memory on the node where the printing process lives
------------------
     ethr =  1.52E-08,  avg # of iterations =  3.7


     -----------------------------------------------
     Non-local corr. energy    =       0.14503575 Ry
     -----------------------------------------------


     total cpu time spent up to now is       74.9 secs

     WARNING: integrated charge=    16.00000660, expected=    16.00000000

     total energy              =     -45.57287476 Ry
     estimated scf accuracy    <       0.00000009 Ry

     iteration #  8     ecut=    30.00 Ry     beta= 0.30
     Davidson diagonalization with overlap

---- Real-time Memory Report at c_bands before calling an iterative solver
            60 MiB given to the printing process from OS
             0 MiB allocation reported by mallinfo(arena+hblkhd)
           160 MiB available memory on the node where the printing process lives
------------------
     ethr =  5.68E-10,  avg # of iterations =  2.0


     -----------------------------------------------
     Non-local corr. energy    =       0.14503377 Ry
     -----------------------------------------------


     total cpu time spent up to now is       75.2 secs

     WARNING: integrated charge=    16.00000660, expected=    16.00000000

     total energy              =     -45.57287489 Ry
     estimated scf accuracy    <          5.2E-09 Ry

     iteration #  9     ecut=    30.00 Ry     beta= 0.30
     Davidson diagonalization with overlap

---- Real-time Memory Report at c_bands before calling an iterative solver
            60 MiB given to the printing process from OS
             0 MiB allocation reported by mallinfo(arena+hblkhd)
           159 MiB available memory on the node where the printing process lives
------------------
     ethr =  3.23E-11,  avg # of iterations =  1.2


     -----------------------------------------------
     Non-local corr. energy    =       0.14503165 Ry
     -----------------------------------------------


     total cpu time spent up to now is       75.4 secs

     End of self-consistent calculation

          k = 0.1250 0.2165 0.0962 (   626 PWs)   bands (ev):

   -11.0506 -10.7642   0.3371   1.2244   1.2722   2.0159   2.2980   2.3318
    14.1082  15.4494  15.8331  16.5768

     occupation numbers 
     1.0000   1.0000   1.0000   1.0000   1.0000   1.0000   1.0000   1.0000
     0.0000   0.0000   0.0000   0.0000

          k = 0.1250 0.5052 0.0962 (   635 PWs)   bands (ev):

    -7.5106  -7.2926  -4.6007  -4.4341  -0.0031   0.0839   4.3274   5.4277
     9.3489  10.0829  16.1972  16.6197

     occupation numbers 
     1.0000   1.0000   1.0000   1.0000   1.0000   1.0000   1.0000   1.0000
     0.0000   0.0000   0.0000   0.0000

          k = 0.1250-0.3608 0.0962 (   638 PWs)   bands (ev):

    -9.5970  -9.3360  -1.5852  -1.4683   0.7675   0.8406   2.0569   3.5973
    12.3268  12.9604  15.7515  16.5786

     occupation numbers 
     1.0000   1.0000   1.0000   1.0000   1.0000   1.0000   1.0000   1.0000
     0.0000   0.0000   0.0000   0.0000

          k = 0.1250-0.0722 0.0962 (   616 PWs)   bands (ev):

   -11.7889 -11.4895  -0.5516   1.1811   3.0129   3.0653   3.6909   3.7298
    13.2617  15.7669  15.9103  17.2273

     occupation numbers 
     1.0000   1.0000   1.0000   1.0000   1.0000   1.0000   1.0000   1.0000
     0.0000   0.0000   0.0000   0.0000

          k = 0.3750 0.6495 0.0962 (   638 PWs)   bands (ev):

    -5.8813  -5.7737  -4.9714  -4.9254  -2.3167  -2.2085   6.0373   6.6546
     8.4010   8.5660  18.0463  18.2215

     occupation numbers 
     1.0000   1.0000   1.0000   1.0000   1.0000   1.0000   1.0000   1.0000
     0.0000   0.0000   0.0000   0.0000

          k = 0.3750-0.2165 0.0962 (   632 PWs)   bands (ev):

    -8.8833  -8.6352  -3.2931  -3.1361   1.3775   1.4368   2.8509   4.2692
    10.7957  11.7094  14.8590  15.2041

     occupation numbers 
     1.0000   1.0000   1.0000   1.0000   1.0000   1.0000   1.0000   1.0000
     0.0000   0.0000   0.0000   0.0000

     the Fermi energy is     7.7099 ev

     WARNING: integrated charge=    16.00000660, expected=    16.00000000

!    total energy              =     -45.57287500 Ry
     estimated scf accuracy    <          5.6E-10 Ry
     smearing contrib. (-TS)   =       0.00000010 Ry
     internal energy E=F+TS    =     -45.57287510 Ry

     The total energy is F=E-TS. E is the sum of the following terms:
     one-electron contribution =      -7.63838593 Ry
     hartree contribution      =      11.97421131 Ry
     xc contribution           =     -14.03270491 Ry
     ewald contribution        =     -35.87599557 Ry

     convergence has been achieved in   9 iterations

     Forces acting on atoms (cartesian axes, Ry/au):

     atom    1 type  1   force =     0.00000000   -0.00000000    0.00000000
     atom    2 type  1   force =     0.00000000    0.00000000    0.00000000
     atom    3 type  1   force =     0.00000000    0.00000000   -0.00000000
     atom    4 type  1   force =     0.00000000    0.00000000    0.00000000
     The non-local contrib.  to forces
     atom    1 type  1   force =    -0.00000000    0.00000000    0.00000000
     atom    2 type  1   force =    -0.00000000   -0.00000000    0.00000000
     atom    3 type  1   force =     0.00000000    0.00000000    0.00000000
     atom    4 type  1   force =     0.00000000   -0.00000000    0.00000000
     The ionic contribution  to forces
     atom    1 type  1   force =     0.00000852   -0.00000492    0.00000000
     atom    2 type  1   force =    -0.00000856    0.00000494    0.00000000
     atom    3 type  1   force =    -0.00000852    0.00000492    0.00000000
     atom    4 type  1   force =     0.00000856   -0.00000494    0.00000000
     The local contribution  to forces
     atom    1 type  1   force =    -0.00000000    0.00000000    0.00000000
     atom    2 type  1   force =    -0.00000802    0.00000463    0.00000000
     atom    3 type  1   force =    -0.00000000   -0.00000000    0.00000000
     atom    4 type  1   force =     0.00000802   -0.00000463    0.00000000
     The core correction contribution to forces
     atom    1 type  1   force =     0.00000000    0.00000000    0.00000000
     atom    2 type  1   force =     0.00000000    0.00000000    0.00000000
     atom    3 type  1   force =     0.00000000    0.00000000    0.00000000
     atom    4 type  1   force =     0.00000000    0.00000000    0.00000000
     The Hubbard contrib.    to forces
     atom    1 type  1   force =     0.00000000    0.00000000    0.00000000
     atom    2 type  1   force =     0.00000000    0.00000000    0.00000000
     atom    3 type  1   force =     0.00000000    0.00000000    0.00000000
     atom    4 type  1   force =     0.00000000    0.00000000    0.00000000
     The SCF correction term to forces
     atom    1 type  1   force =     0.00000000   -0.00000000   -0.00000000
     atom    2 type  1   force =    -0.00000000    0.00000000   -0.00000000
     atom    3 type  1   force =    -0.00000000    0.00000000   -0.00000000
     atom    4 type  1   force =     0.00000000   -0.00000000   -0.00000000

     Total force =     0.000000     Total SCF correction =     0.000000


     Computing stress (Cartesian axis) and pressure

          total   stress  (Ry/bohr**3)                   (kbar)     P=      -14.33
  -0.00015459   0.00000000   0.00000000          -22.74        0.00        0.00
   0.00000000  -0.00015459  -0.00000000            0.00      -22.74       -0.00
   0.00000000  -0.00000000   0.00001692            0.00       -0.00        2.49

     kinetic stress (kbar)  11008.89     -0.00      0.00
                               -0.00  11008.89      0.00
                                0.00      0.00  12727.62

     local   stress (kbar) -16806.72      0.01      0.00
                                0.01 -16806.71      0.00
                                0.00      0.00  24102.86

     nonloc. stress (kbar)   -465.89      0.00      0.00
                                0.00   -465.89      0.00
                                0.00      0.00   -462.25

     hartree stress (kbar)   6671.87     -0.00     -0.00
                               -0.00   6671.87      0.00
                               -0.00      0.00  -5612.74

     exc-cor stress (kbar)  -2804.12      0.00     -0.00
                                0.00  -2804.12     -0.00
                               -0.00     -0.00  -2933.71

     corecor stress (kbar)      0.00      0.00      0.00
                                0.00      0.00      0.00
                                0.00      0.00      0.00

     ewald   stress (kbar)   2365.81     -0.03     -0.00
                               -0.03   2365.78     -0.00
                               -0.00     -0.00 -27894.47

     hubbard stress (kbar)      0.00      0.00      0.00
                                0.00      0.00      0.00
                                0.00      0.00      0.00

     DFT-D   stress (kbar)      0.00      0.00      0.00
                                0.00      0.00      0.00
                                0.00      0.00      0.00

     XDM     stress (kbar)      0.00      0.00      0.00
                                0.00      0.00      0.00
                                0.00      0.00      0.00

     dft-nl  stress (kbar)      7.44      0.00     -0.00
                                0.00      7.44     -0.00
                               -0.00     -0.00     75.18

     TS-vdW  stress (kbar)      0.00      0.00      0.00
                                0.00      0.00      0.00
                                0.00      0.00      0.00


                                0.00      0.00      0.00
                                0.00      0.00      0.00


                                0.00      0.00      0.00


     BFGS Geometry Optimization
     Energy error            =      0.0E+00 Ry
     Gradient error          =      8.2E-23 Ry/Bohr
     Cell gradient error     =      2.3E+01 kbar

     number of scf cycles    =   1
     number of bfgs steps    =   0

     enthalpy           new  =     -45.5728750050 Ry

     new trust radius        =       0.0116670043 bohr
     new conv_thr            =       0.0000000010 Ry

     new unit-cell volume =    226.18278 a.u.^3 (    33.51683 Ang^3 )
     density =      2.38027 g/cm^3

CELL_PARAMETERS (alat=  4.66006462)
   0.996135353   0.000000000   0.000000000
  -0.498067677   0.862678522  -0.000000000
   0.000000000  -0.000000000   2.600856412

ATOMIC_POSITIONS (crystal)
C             0.0000000000        1.0000000000        0.7500000000
C             0.6666670000        0.3333330000        0.7500000000
C             0.0000000000        1.0000000000        0.2500000000
C             0.3333330000        0.6666670000        0.2500000000



     Writing config-only to output data dir ././graphite_vdw.save/
     NEW-OLD atomic charge density approx. for the potential


     -----------------------------------------------
     Non-local corr. energy    =       0.14388217 Ry
     -----------------------------------------------

     extrapolated charge   15.88244, renormalised to   16.00000

     total cpu time spent up to now is       76.4 secs

     Self-consistent Calculation

     iteration #  1     ecut=    30.00 Ry     beta= 0.30
     Davidson diagonalization with overlap

---- Real-time Memory Report at c_bands before calling an iterative solver
            60 MiB given to the printing process from OS
             0 MiB allocation reported by mallinfo(arena+hblkhd)
           161 MiB available memory on the node where the printing process lives
------------------
     ethr =  1.00E-06,  avg # of iterations =  3.0


     -----------------------------------------------
     Non-local corr. energy    =       0.14521122 Ry
     -----------------------------------------------


     total cpu time spent up to now is       76.7 secs

     WARNING: integrated charge=    16.00000162, expected=    16.00000000

     total energy              =     -45.57233554 Ry
     estimated scf accuracy    <       0.00042504 Ry

     iteration #  2     ecut=    30.00 Ry     beta= 0.30
     Davidson diagonalization with overlap

---- Real-time Memory Report at c_bands before calling an iterative solver
            60 MiB given to the printing process from OS
             0 MiB allocation reported by mallinfo(arena+hblkhd)
           160 MiB available memory on the node where the printing process lives
------------------
     ethr =  2.66E-06,  avg # of iterations =  2.8


     -----------------------------------------------
     Non-local corr. energy    =       0.14511011 Ry
     -----------------------------------------------


     total cpu time spent up to now is       76.9 secs

     WARNING: integrated charge=    16.00000251, expected=    16.00000000

     total energy              =     -45.57285552 Ry
     estimated scf accuracy    <       0.00002213 Ry

     iteration #  3     ecut=    30.00 Ry     beta= 0.30
     Davidson diagonalization with overlap

---- Real-time Memory Report at c_bands before calling an iterative solver
            60 MiB given to the printing process from OS
             0 MiB allocation reported by mallinfo(arena+hblkhd)
           161 MiB available memory on the node where the printing process lives
------------------
     ethr =  1.38E-07,  avg # of iterations =  1.0


     -----------------------------------------------
     Non-local corr. energy    =       0.14489831 Ry
     -----------------------------------------------


     total cpu time spent up to now is       77.2 secs

     WARNING: integrated charge=    16.00000449, expected=    16.00000000

     total energy              =     -45.57285007 Ry
     estimated scf accuracy    <       0.00001144 Ry

     iteration #  4     ecut=    30.00 Ry     beta= 0.30
     Davidson diagonalization with overlap

---- Real-time Memory Report at c_bands before calling an iterative solver
            60 MiB given to the printing process from OS
             0 MiB allocation reported by mallinfo(arena+hblkhd)
           160 MiB available memory on the node where the printing process lives
------------------
     ethr =  7.15E-08,  avg # of iterations =  2.0


     -----------------------------------------------
     Non-local corr. energy    =       0.14483916 Ry
     -----------------------------------------------


     total cpu time spent up to now is       77.4 secs

     WARNING: integrated charge=    16.00000536, expected=    16.00000000

     total energy              =     -45.57285237 Ry
     estimated scf accuracy    <       0.00000012 Ry

     iteration #  5     ecut=    30.00 Ry     beta= 0.30
     Davidson diagonalization with overlap

---- Real-time Memory Report at c_bands before calling an iterative solver
            60 MiB given to the printing process from OS
             0 MiB allocation reported by mallinfo(arena+hblkhd)
           160 MiB available memory on the node where the printing process lives
------------------
     ethr =  7.45E-10,  avg # of iterations =  2.0


     -----------------------------------------------
     Non-local corr. energy    =       0.14487487 Ry
     -----------------------------------------------


     total cpu time spent up to now is       77.7 secs

     WARNING: integrated charge=    16.00000530, expected=    16.00000000

     total energy              =     -45.57285198 Ry
     estimated scf accuracy    <       0.00000116 Ry

     iteration #  6     ecut=    30.00 Ry     beta= 0.30
     Davidson diagonalization with overlap

---- Real-time Memory Report at c_bands before calling an iterative solver
            60 MiB given to the printing process from OS
             0 MiB allocation reported by mallinfo(arena+hblkhd)
           160 MiB available memory on the node where the printing process lives
------------------
     ethr =  7.45E-10,  avg # of iterations =  2.0


     -----------------------------------------------
     Non-local corr. energy    =       0.14489151 Ry
     -----------------------------------------------


     total cpu time spent up to now is       77.9 secs

     WARNING: integrated charge=    16.00000529, expected=    16.00000000

     total energy              =     -45.57285196 Ry
     estimated scf accuracy    <       0.00000017 Ry

     iteration #  7     ecut=    30.00 Ry     beta= 0.30
     Davidson diagonalization with overlap

---- Real-time Memory Report at c_bands before calling an iterative solver
            61 MiB given to the printing process from OS
             0 MiB allocation reported by mallinfo(arena+hblkhd)
           160 MiB available memory on the node where the printing process lives
------------------
     ethr =  7.45E-10,  avg # of iterations =  2.0


     -----------------------------------------------
     Non-local corr. energy    =       0.14489753 Ry
     -----------------------------------------------


     total cpu time spent up to now is       78.2 secs

     WARNING: integrated charge=    16.00000526, expected=    16.00000000

     total energy              =     -45.57285197 Ry
     estimated scf accuracy    <          7.9E-09 Ry

     iteration #  8     ecut=    30.00 Ry     beta= 0.30
     Davidson diagonalization with overlap

---- Real-time Memory Report at c_bands before calling an iterative solver
            61 MiB given to the printing process from OS
             0 MiB allocation reported by mallinfo(arena+hblkhd)
           160 MiB available memory on the node where the printing process lives
------------------
     ethr =  4.92E-11,  avg # of iterations =  2.0


     -----------------------------------------------
     Non-local corr. energy    =       0.14489549 Ry
     -----------------------------------------------


     total cpu time spent up to now is       78.4 secs

     End of self-consistent calculation

          k = 0.1255 0.2173 0.0961 (   626 PWs)   bands (ev):

   -11.0502 -10.7662   0.3600   1.2998   1.3467   2.0303   2.3623   2.3954
    14.1510  15.6289  16.0101  16.7451

     occupation numbers 
     1.0000   1.0000   1.0000   1.0000   1.0000   1.0000   1.0000   1.0000
     0.0000   0.0000   0.0000   0.0000

          k = 0.1255 0.5071 0.0961 (   635 PWs)   bands (ev):

    -7.4826  -7.2664  -4.5669  -4.4017   0.0436   0.1293   4.3887   5.4849
     9.4490  10.1846  16.4025  16.8232

     occupation numbers 
     1.0000   1.0000   1.0000   1.0000   1.0000   1.0000   1.0000   1.0000
     0.0000   0.0000   0.0000   0.0000

          k = 0.1255-0.3622 0.0961 (   638 PWs)   bands (ev):

    -9.5863  -9.3278  -1.5270  -1.4115   0.8193   0.8914   2.0960   3.6291
    12.4663  13.0990  15.8160  16.7749

     occupation numbers 
     1.0000   1.0000   1.0000   1.0000   1.0000   1.0000   1.0000   1.0000
     0.0000   0.0000   0.0000   0.0000

          k = 0.1255-0.0724 0.0961 (   616 PWs)   bands (ev):

   -11.7936 -11.4966  -0.5368   1.1869   3.0951   3.1465   3.7710   3.8090
    13.2960  15.9343  16.0781  17.4048

     occupation numbers 
     1.0000   1.0000   1.0000   1.0000   1.0000   1.0000   1.0000   1.0000
     0.0000   0.0000   0.0000   0.0000

          k = 0.3765 0.6520 0.0961 (   638 PWs)   bands (ev):

    -5.8330  -5.7267  -4.9405  -4.8935  -2.2947  -2.1866   6.1160   6.7297
     8.4954   8.6549  18.1566  18.3438

     occupation numbers 
     1.0000   1.0000   1.0000   1.0000   1.0000   1.0000   1.0000   1.0000
     0.0000   0.0000   0.0000   0.0000

          k = 0.3765-0.2173 0.0961 (   632 PWs)   bands (ev):

    -8.8671  -8.6214  -3.2491  -3.0940   1.4333   1.4914   2.8976   4.3098
    10.9132  11.8272  15.0556  15.3948

     occupation numbers 
     1.0000   1.0000   1.0000   1.0000   1.0000   1.0000   1.0000   1.0000
     0.0000   0.0000   0.0000   0.0000

     the Fermi energy is     7.7948 ev

     WARNING: integrated charge=    16.00000525, expected=    16.00000000

!    total energy              =     -45.57285197 Ry
     estimated scf accuracy    <          6.5E-10 Ry
     smearing contrib. (-TS)   =       0.00000008 Ry
     internal energy E=F+TS    =     -45.57285205 Ry

     The total energy is F=E-TS. E is the sum of the following terms:
     one-electron contribution =      -7.75846181 Ry
     hartree contribution      =      12.07990396 Ry
     xc contribution           =     -14.06579644 Ry
     ewald contribution        =     -35.82849776 Ry

     convergence has been achieved in   8 iterations

     Forces acting on atoms (cartesian axes, Ry/au):

     atom    1 type  1   force =    -0.00000000    0.00000000    0.00000000
     atom    2 type  1   force =     0.00000000    0.00000000    0.00000000
     atom    3 type  1   force =     0.00000000   -0.00000000   -0.00000000
     atom    4 type  1   force =     0.00000000    0.00000000   -0.00000000
     The non-local contrib.  to forces
     atom    1 type  1   force =    -0.00000000    0.00000000    0.00000000
     atom    2 type  1   force =    -0.00000000   -0.00000000   -0.00000000
     atom    3 type  1   force =    -0.00000000   -0.00000000    0.00000000
     atom    4 type  1   force =     0.00000000    0.00000000    0.00000000
     The ionic contribution  to forces
     atom    1 type  1   force =     0.00000859   -0.00000496   -0.00000000
     atom    2 type  1   force =    -0.00000862    0.00000498   -0.00000000
     atom    3 type  1   force =    -0.00000859    0.00000496   -0.00000000
     atom    4 type  1   force =     0.00000862   -0.00000498   -0.00000000
     The local contribution  to forces
     atom    1 type  1   force =    -0.00000000    0.00000000    0.00000000
     atom    2 type  1   force =    -0.00000797    0.00000460    0.00000000
     atom    3 type  1   force =    -0.00000000   -0.00000000    0.00000000
     atom    4 type  1   force =     0.00000797   -0.00000460    0.00000000
     The core correction contribution to forces
     atom    1 type  1   force =     0.00000000    0.00000000    0.00000000
     atom    2 type  1   force =     0.00000000    0.00000000    0.00000000
     atom    3 type  1   force =     0.00000000    0.00000000    0.00000000
     atom    4 type  1   force =     0.00000000    0.00000000    0.00000000
     The Hubbard contrib.    to forces
     atom    1 type  1   force =     0.00000000    0.00000000    0.00000000
     atom    2 type  1   force =     0.00000000    0.00000000    0.00000000
     atom    3 type  1   force =     0.00000000    0.00000000    0.00000000
     atom    4 type  1   force =     0.00000000    0.00000000    0.00000000
     The SCF correction term to forces
     atom    1 type  1   force =    -0.00000000    0.00000000   -0.00000000
     atom    2 type  1   force =     0.00000000   -0.00000000    0.00000000
     atom    3 type  1   force =     0.00000000   -0.00000000    0.00000000
     atom    4 type  1   force =    -0.00000000    0.00000000    0.00000000

     Total force =     0.000000     Total SCF correction =     0.000000


     Computing stress (Cartesian axis) and pressure

          total   stress  (Ry/bohr**3)                   (kbar)     P=       18.88
   0.00018557  -0.00000000   0.00000000           27.30       -0.00        0.00
  -0.00000000   0.00018557   0.00000000           -0.00       27.30        0.00
  -0.00000000   0.00000000   0.00001397           -0.00        0.00        2.06

     kinetic stress (kbar)  11139.78     -0.00     -0.00
                               -0.00  11139.78      0.00
                               -0.00      0.00  12850.65

     local   stress (kbar) -17119.88      0.01     -0.00
                                0.01 -17119.87      0.00
                               -0.00      0.00  24577.47

     nonloc. stress (kbar)   -479.12     -0.00      0.00
                               -0.00   -479.12      0.00
                                0.00      0.00   -472.90

     hartree stress (kbar)   6797.12     -0.00     -0.00
                               -0.00   6797.12     -0.00
                               -0.00     -0.00  -5737.70

     exc-cor stress (kbar)  -2831.45     -0.00     -0.00
                               -0.00  -2831.45      0.00
                               -0.00      0.00  -2962.43

     corecor stress (kbar)      0.00      0.00      0.00
                                0.00      0.00      0.00
                                0.00      0.00      0.00

     ewald   stress (kbar)   2513.46     -0.03     -0.00
                               -0.03   2513.43      0.00
                               -0.00      0.00 -28329.07

     hubbard stress (kbar)      0.00      0.00      0.00
                                0.00      0.00      0.00
                                0.00      0.00      0.00

     DFT-D   stress (kbar)      0.00      0.00      0.00
                                0.00      0.00      0.00
                                0.00      0.00      0.00

     XDM     stress (kbar)      0.00      0.00      0.00
                                0.00      0.00      0.00
                                0.00      0.00      0.00

     dft-nl  stress (kbar)      7.40      0.00     -0.00
                                0.00      7.40     -0.00
                               -0.00     -0.00     76.04

     TS-vdW  stress (kbar)      0.00      0.00      0.00
                                0.00      0.00      0.00
                                0.00      0.00      0.00


                                0.00      0.00      0.00
                                0.00      0.00      0.00


                                0.00      0.00      0.00

     Energy error            =      2.3E-05 Ry
     Gradient error          =      3.3E-22 Ry/Bohr
     Cell gradient error     =      2.7E+01 kbar

     number of scf cycles    =   2
     number of bfgs steps    =   1

     enthalpy           old  =     -45.5728750050 Ry
     enthalpy           new  =     -45.5728519736 Ry

     CASE: enthalpy          _new > enthalpy          _old

     new trust radius        =       0.0053821197 bohr
     new conv_thr            =       0.0000000010 Ry

     new unit-cell volume =    227.07760 a.u.^3 (    33.64943 Ang^3 )
     density =      2.37089 g/cm^3

CELL_PARAMETERS (alat=  4.66006462)
   0.998217572   0.000000000   0.000000000
  -0.499108786   0.864481776  -0.000000000
   0.000000000  -0.000000000   2.600263897

ATOMIC_POSITIONS (crystal)
C             0.0000000000        1.0000000000        0.7500000000
C             0.6666670000        0.3333330000        0.7500000000
C             0.0000000000        1.0000000000        0.2500000000
C             0.3333330000        0.6666670000        0.2500000000



     Writing config-only to output data dir ././graphite_vdw.save/
     NEW-OLD atomic charge density approx. for the potential


     -----------------------------------------------
     Non-local corr. energy    =       0.14551169 Ry
     -----------------------------------------------

     extrapolated charge   16.06305, renormalised to   16.00000

     total cpu time spent up to now is       79.5 secs

     Self-consistent Calculation

     iteration #  1     ecut=    30.00 Ry     beta= 0.30
     Davidson diagonalization with overlap

---- Real-time Memory Report at c_bands before calling an iterative solver
            61 MiB given to the printing process from OS
             0 MiB allocation reported by mallinfo(arena+hblkhd)
           161 MiB available memory on the node where the printing process lives
------------------
     ethr =  1.00E-06,  avg # of iterations =  2.2


     -----------------------------------------------
     Non-local corr. energy    =       0.14480038 Ry
     -----------------------------------------------


     total cpu time spent up to now is       79.8 secs

     WARNING: integrated charge=    16.00000175, expected=    16.00000000

     total energy              =     -45.57279246 Ry
     estimated scf accuracy    <       0.00012060 Ry

     iteration #  2     ecut=    30.00 Ry     beta= 0.30
     Davidson diagonalization with overlap

---- Real-time Memory Report at c_bands before calling an iterative solver
            61 MiB given to the printing process from OS
             0 MiB allocation reported by mallinfo(arena+hblkhd)
           161 MiB available memory on the node where the printing process lives
------------------
     ethr =  7.54E-07,  avg # of iterations =  2.0


     -----------------------------------------------
     Non-local corr. energy    =       0.14485400 Ry
     -----------------------------------------------


     total cpu time spent up to now is       80.1 secs

     WARNING: integrated charge=    16.00000278, expected=    16.00000000

     total energy              =     -45.57293972 Ry
     estimated scf accuracy    <       0.00000620 Ry

     iteration #  3     ecut=    30.00 Ry     beta= 0.30
     Davidson diagonalization with overlap

---- Real-time Memory Report at c_bands before calling an iterative solver
            61 MiB given to the printing process from OS
             0 MiB allocation reported by mallinfo(arena+hblkhd)
           161 MiB available memory on the node where the printing process lives
------------------
     ethr =  3.88E-08,  avg # of iterations =  1.0


     -----------------------------------------------
     Non-local corr. energy    =       0.14496003 Ry
     -----------------------------------------------


     total cpu time spent up to now is       80.3 secs

     WARNING: integrated charge=    16.00000492, expected=    16.00000000

     total energy              =     -45.57293821 Ry
     estimated scf accuracy    <       0.00000330 Ry

     iteration #  4     ecut=    30.00 Ry     beta= 0.30
     Davidson diagonalization with overlap

---- Real-time Memory Report at c_bands before calling an iterative solver
            61 MiB given to the printing process from OS
             0 MiB allocation reported by mallinfo(arena+hblkhd)
           160 MiB available memory on the node where the printing process lives
------------------
     ethr =  2.07E-08,  avg # of iterations =  2.0


     -----------------------------------------------
     Non-local corr. energy    =       0.14499857 Ry
     -----------------------------------------------


     total cpu time spent up to now is       80.5 secs

     WARNING: integrated charge=    16.00000604, expected=    16.00000000

     total energy              =     -45.57293879 Ry
     estimated scf accuracy    <       0.00000003 Ry

     iteration #  5     ecut=    30.00 Ry     beta= 0.30
     Davidson diagonalization with overlap

---- Real-time Memory Report at c_bands before calling an iterative solver
            61 MiB given to the printing process from OS
             0 MiB allocation reported by mallinfo(arena+hblkhd)
           160 MiB available memory on the node where the printing process lives
------------------
     ethr =  1.97E-10,  avg # of iterations =  2.0


     -----------------------------------------------
     Non-local corr. energy    =       0.14498092 Ry
     -----------------------------------------------


     total cpu time spent up to now is       80.8 secs

     WARNING: integrated charge=    16.00000600, expected=    16.00000000

     total energy              =     -45.57293871 Ry
     estimated scf accuracy    <       0.00000032 Ry

     iteration #  6     ecut=    30.00 Ry     beta= 0.30
     Davidson diagonalization with overlap

---- Real-time Memory Report at c_bands before calling an iterative solver
            61 MiB given to the printing process from OS
             0 MiB allocation reported by mallinfo(arena+hblkhd)
           160 MiB available memory on the node where the printing process lives
------------------
     ethr =  1.97E-10,  avg # of iterations =  2.0


     -----------------------------------------------
     Non-local corr. energy    =       0.14497213 Ry
     -----------------------------------------------


     total cpu time spent up to now is       81.0 secs

     WARNING: integrated charge=    16.00000598, expected=    16.00000000

     total energy              =     -45.57293870 Ry
     estimated scf accuracy    <       0.00000005 Ry

     iteration #  7     ecut=    30.00 Ry     beta= 0.30
     Davidson diagonalization with overlap

---- Real-time Memory Report at c_bands before calling an iterative solver
            61 MiB given to the printing process from OS
             0 MiB allocation reported by mallinfo(arena+hblkhd)
           160 MiB available memory on the node where the printing process lives
------------------
     ethr =  1.97E-10,  avg # of iterations =  2.0


     -----------------------------------------------
     Non-local corr. energy    =       0.14496849 Ry
     -----------------------------------------------


     total cpu time spent up to now is       81.3 secs

     WARNING: integrated charge=    16.00000595, expected=    16.00000000

     total energy              =     -45.57293870 Ry
     estimated scf accuracy    <          3.2E-09 Ry

     iteration #  8     ecut=    30.00 Ry     beta= 0.30
     Davidson diagonalization with overlap

---- Real-time Memory Report at c_bands before calling an iterative solver
            61 MiB given to the printing process from OS
             0 MiB allocation reported by mallinfo(arena+hblkhd)
           160 MiB available memory on the node where the printing process lives
------------------
     ethr =  2.00E-11,  avg # of iterations =  2.0


     -----------------------------------------------
     Non-local corr. energy    =       0.14496955 Ry
     -----------------------------------------------


     total cpu time spent up to now is       81.5 secs

     End of self-consistent calculation

          k = 0.1252 0.2169 0.0961 (   626 PWs)   bands (ev):

   -11.0506 -10.7653   0.3476   1.2589   1.3063   2.0225   2.3274   2.3609
    14.1279  15.5319  15.9144  16.6541

     occupation numbers 
     1.0000   1.0000   1.0000   1.0000   1.0000   1.0000   1.0000   1.0000
     0.0000   0.0000   0.0000   0.0000

          k = 0.1252 0.5061 0.0961 (   635 PWs)   bands (ev):

    -7.4979  -7.2807  -4.5853  -4.4194   0.0182   0.1046   4.3555   5.4539
     9.3949  10.1296  16.2916  16.7133

     occupation numbers 
     1.0000   1.0000   1.0000   1.0000   1.0000   1.0000   1.0000   1.0000
     0.0000   0.0000   0.0000   0.0000

          k = 0.1252-0.3615 0.0961 (   638 PWs)   bands (ev):

    -9.5922  -9.3324  -1.5586  -1.4423   0.7912   0.8638   2.0749   3.6119
    12.3909  13.0241  15.7812  16.6687

     occupation numbers 
     1.0000   1.0000   1.0000   1.0000   1.0000   1.0000   1.0000   1.0000
     0.0000   0.0000   0.0000   0.0000

          k = 0.1252-0.0723 0.0961 (   616 PWs)   bands (ev):

   -11.7912 -11.4929  -0.5448   1.1837   3.0505   3.1025   3.7275   3.7660
    13.2775  15.8439  15.9874  17.3087

     occupation numbers 
     1.0000   1.0000   1.0000   1.0000   1.0000   1.0000   1.0000   1.0000
     0.0000   0.0000   0.0000   0.0000

          k = 0.3757 0.6507 0.0961 (   638 PWs)   bands (ev):

    -5.8593  -5.7523  -4.9572  -4.9108  -2.3068  -2.1987   6.0734   6.6891
     8.4444   8.6068  18.0971  18.2781

     occupation numbers 
     1.0000   1.0000   1.0000   1.0000   1.0000   1.0000   1.0000   1.0000
     0.0000   0.0000   0.0000   0.0000

          k = 0.3757-0.2169 0.0961 (   632 PWs)   bands (ev):

    -8.8760  -8.6290  -3.2731  -3.1169   1.4030   1.4617   2.8723   4.2878
    10.8497  11.7635  14.9493  15.2918

     occupation numbers 
     1.0000   1.0000   1.0000   1.0000   1.0000   1.0000   1.0000   1.0000
     0.0000   0.0000   0.0000   0.0000

     the Fermi energy is     7.7489 ev

     WARNING: integrated charge=    16.00000594, expected=    16.00000000

!    total energy              =     -45.57293870 Ry
     estimated scf accuracy    <          1.7E-10 Ry
     smearing contrib. (-TS)   =       0.00000009 Ry
     internal energy E=F+TS    =     -45.57293879 Ry

     The total energy is F=E-TS. E is the sum of the following terms:
     one-electron contribution =      -7.69348281 Ry
     hartree contribution      =      12.02280240 Ry
     xc contribution           =     -14.04794518 Ry
     ewald contribution        =     -35.85431320 Ry

     convergence has been achieved in   8 iterations

     Forces acting on atoms (cartesian axes, Ry/au):

     atom    1 type  1   force =    -0.00000000    0.00000000    0.00000000
     atom    2 type  1   force =    -0.00000000   -0.00000000    0.00000000
     atom    3 type  1   force =     0.00000000   -0.00000000   -0.00000000
     atom    4 type  1   force =     0.00000000    0.00000000   -0.00000000
     The non-local contrib.  to forces
     atom    1 type  1   force =    -0.00000000    0.00000000    0.00000000
     atom    2 type  1   force =    -0.00000000   -0.00000000    0.00000000
     atom    3 type  1   force =     0.00000000   -0.00000000   -0.00000000
     atom    4 type  1   force =     0.00000000    0.00000000   -0.00000000
     The ionic contribution  to forces
     atom    1 type  1   force =     0.00000855   -0.00000494   -0.00000000
     atom    2 type  1   force =    -0.00000859    0.00000496   -0.00000000
     atom    3 type  1   force =    -0.00000855    0.00000494   -0.00000000
     atom    4 type  1   force =     0.00000859   -0.00000496   -0.00000000
     The local contribution  to forces
     atom    1 type  1   force =    -0.00000000    0.00000000    0.00000000
     atom    2 type  1   force =    -0.00000800    0.00000462    0.00000000
     atom    3 type  1   force =    -0.00000000   -0.00000000    0.00000000
     atom    4 type  1   force =     0.00000800   -0.00000462    0.00000000
     The core correction contribution to forces
     atom    1 type  1   force =     0.00000000    0.00000000    0.00000000
     atom    2 type  1   force =     0.00000000    0.00000000    0.00000000
     atom    3 type  1   force =     0.00000000    0.00000000    0.00000000
     atom    4 type  1   force =     0.00000000    0.00000000    0.00000000
     The Hubbard contrib.    to forces
     atom    1 type  1   force =     0.00000000    0.00000000    0.00000000
     atom    2 type  1   force =     0.00000000    0.00000000    0.00000000
     atom    3 type  1   force =     0.00000000    0.00000000    0.00000000
     atom    4 type  1   force =     0.00000000    0.00000000    0.00000000
     The SCF correction term to forces
     atom    1 type  1   force =     0.00000000   -0.00000000   -0.00000000
     atom    2 type  1   force =    -0.00000000    0.00000000    0.00000000
     atom    3 type  1   force =    -0.00000000    0.00000000    0.00000000
     atom    4 type  1   force =     0.00000000   -0.00000000   -0.00000000

     Total force =     0.000000     Total SCF correction =     0.000000


     Computing stress (Cartesian axis) and pressure

          total   stress  (Ry/bohr**3)                   (kbar)     P=        0.88
   0.00000083   0.00000000   0.00000000            0.12        0.00        0.00
  -0.00000000   0.00000083  -0.00000000           -0.00        0.12       -0.00
  -0.00000000   0.00000000   0.00001638           -0.00        0.00        2.41

     kinetic stress (kbar)  11068.98     -0.00     -0.00
                               -0.00  11068.98      0.00
                               -0.00     -0.00  12784.21

     local   stress (kbar) -16950.37      0.01     -0.00
                                0.01 -16950.35      0.00
                               -0.00      0.00  24320.59

     nonloc. stress (kbar)   -471.95     -0.00      0.00
                               -0.00   -471.95      0.00
                                0.00      0.00   -467.14

     hartree stress (kbar)   6729.32     -0.00     -0.00
                               -0.00   6729.32     -0.00
                               -0.00     -0.00  -5670.05

     exc-cor stress (kbar)  -2816.68      0.00     -0.00
                                0.00  -2816.68      0.00
                               -0.00      0.00  -2946.91

     corecor stress (kbar)      0.00      0.00      0.00
                                0.00      0.00      0.00
                                0.00      0.00      0.00

     ewald   stress (kbar)   2433.40     -0.03     -0.00
                               -0.03   2433.37     -0.00
                               -0.00     -0.00 -28093.86

     hubbard stress (kbar)      0.00      0.00      0.00
                                0.00      0.00      0.00
                                0.00      0.00      0.00

     DFT-D   stress (kbar)      0.00      0.00      0.00
                                0.00      0.00      0.00
                                0.00      0.00      0.00

     XDM     stress (kbar)      0.00      0.00      0.00
                                0.00      0.00      0.00
                                0.00      0.00      0.00

     dft-nl  stress (kbar)      7.42      0.00     -0.00
                                0.00      7.42      0.00
                               -0.00      0.00     75.57

     TS-vdW  stress (kbar)      0.00      0.00      0.00
                                0.00      0.00      0.00
                                0.00      0.00      0.00


                                0.00      0.00      0.00
                                0.00      0.00      0.00


                                0.00      0.00      0.00

     Energy error            =      6.4E-05 Ry
     Gradient error          =      3.3E-22 Ry/Bohr
     Cell gradient error     =      2.4E+00 kbar

     number of scf cycles    =   3
     number of bfgs steps    =   1

     enthalpy           old  =     -45.5728750050 Ry
     enthalpy           new  =     -45.5729386992 Ry

     CASE: enthalpy          _new < enthalpy          _old

     new trust radius        =       0.0012365629 bohr
     new conv_thr            =            1.0E-11 Ry

     new unit-cell volume =    227.17078 a.u.^3 (    33.66324 Ang^3 )
     density =      2.36991 g/cm^3

CELL_PARAMETERS (alat=  4.66006462)
   0.998217603   0.000000000  -0.000000000
  -0.499108802   0.864481803   0.000000000
   0.000000000  -0.000000000   2.601330780

ATOMIC_POSITIONS (crystal)
C             0.0000000000        1.0000000000        0.7500000000
C             0.6666670000        0.3333330000        0.7500000000
C             0.0000000000        1.0000000000        0.2500000000
C             0.3333330000        0.6666670000        0.2500000000



     Writing config-only to output data dir ././graphite_vdw.save/
     NEW-OLD atomic charge density approx. for the potential


     -----------------------------------------------
     Non-local corr. energy    =       0.14505814 Ry
     -----------------------------------------------

     extrapolated charge   16.00657, renormalised to   16.00000

     total cpu time spent up to now is       82.5 secs

     Self-consistent Calculation

     iteration #  1     ecut=    30.00 Ry     beta= 0.30
     Davidson diagonalization with overlap

---- Real-time Memory Report at c_bands before calling an iterative solver
            61 MiB given to the printing process from OS
             0 MiB allocation reported by mallinfo(arena+hblkhd)
           161 MiB available memory on the node where the printing process lives
------------------
     ethr =  1.00E-06,  avg # of iterations =  2.0

     Threshold (ethr) on eigenvalues was too large:
     Diagonalizing with lowered threshold

     Davidson diagonalization with overlap

---- Real-time Memory Report at c_bands before calling an iterative solver
            61 MiB given to the printing process from OS
             0 MiB allocation reported by mallinfo(arena+hblkhd)
           161 MiB available memory on the node where the printing process lives
------------------
     ethr =  3.84E-09,  avg # of iterations =  1.0


     -----------------------------------------------
     Non-local corr. energy    =       0.14499146 Ry
     -----------------------------------------------


     total cpu time spent up to now is       82.9 secs

     WARNING: integrated charge=    16.00000178, expected=    16.00000000

     total energy              =     -45.57293877 Ry
     estimated scf accuracy    <       0.00000061 Ry

     iteration #  2     ecut=    30.00 Ry     beta= 0.30
     Davidson diagonalization with overlap

---- Real-time Memory Report at c_bands before calling an iterative solver
            61 MiB given to the printing process from OS
             0 MiB allocation reported by mallinfo(arena+hblkhd)
           161 MiB available memory on the node where the printing process lives
------------------
     ethr =  3.79E-09,  avg # of iterations =  2.8


     -----------------------------------------------
     Non-local corr. energy    =       0.14499836 Ry
     -----------------------------------------------


     total cpu time spent up to now is       83.1 secs

     WARNING: integrated charge=    16.00000254, expected=    16.00000000

     total energy              =     -45.57294021 Ry
     estimated scf accuracy    <       0.00000026 Ry

     iteration #  3     ecut=    30.00 Ry     beta= 0.30
     Davidson diagonalization with overlap

---- Real-time Memory Report at c_bands before calling an iterative solver
            61 MiB given to the printing process from OS
             0 MiB allocation reported by mallinfo(arena+hblkhd)
           160 MiB available memory on the node where the printing process lives
------------------
     ethr =  1.63E-09,  avg # of iterations =  1.0


     -----------------------------------------------
     Non-local corr. energy    =       0.14502321 Ry
     -----------------------------------------------


     total cpu time spent up to now is       83.4 secs

     WARNING: integrated charge=    16.00000567, expected=    16.00000000

     total energy              =     -45.57294011 Ry
     estimated scf accuracy    <       0.00000015 Ry

     iteration #  4     ecut=    30.00 Ry     beta= 0.30
     Davidson diagonalization with overlap

---- Real-time Memory Report at c_bands before calling an iterative solver
            61 MiB given to the printing process from OS
             0 MiB allocation reported by mallinfo(arena+hblkhd)
           160 MiB available memory on the node where the printing process lives
------------------
     ethr =  9.46E-10,  avg # of iterations =  2.0


     -----------------------------------------------
     Non-local corr. energy    =       0.14502025 Ry
     -----------------------------------------------


     total cpu time spent up to now is       83.6 secs

     WARNING: integrated charge=    16.00000570, expected=    16.00000000

     total energy              =     -45.57294015 Ry
     estimated scf accuracy    <       0.00000001 Ry

     iteration #  5     ecut=    30.00 Ry     beta= 0.30
     Davidson diagonalization with overlap

---- Real-time Memory Report at c_bands before calling an iterative solver
            61 MiB given to the printing process from OS
             0 MiB allocation reported by mallinfo(arena+hblkhd)
           160 MiB available memory on the node where the printing process lives
------------------
     ethr =  9.16E-11,  avg # of iterations =  1.0


     -----------------------------------------------
     Non-local corr. energy    =       0.14501626 Ry
     -----------------------------------------------


     total cpu time spent up to now is       83.9 secs

     WARNING: integrated charge=    16.00000591, expected=    16.00000000

     total energy              =     -45.57294014 Ry
     estimated scf accuracy    <          4.8E-09 Ry

     iteration #  6     ecut=    30.00 Ry     beta= 0.30
     Davidson diagonalization with overlap

---- Real-time Memory Report at c_bands before calling an iterative solver
            61 MiB given to the printing process from OS
             0 MiB allocation reported by mallinfo(arena+hblkhd)
           160 MiB available memory on the node where the printing process lives
------------------
     ethr =  3.00E-11,  avg # of iterations =  2.0


     -----------------------------------------------
     Non-local corr. energy    =       0.14501698 Ry
     -----------------------------------------------


     total cpu time spent up to now is       84.1 secs

     WARNING: integrated charge=    16.00000593, expected=    16.00000000

     total energy              =     -45.57294014 Ry
     estimated scf accuracy    <          2.4E-11 Ry

     iteration #  7     ecut=    30.00 Ry     beta= 0.30
     Davidson diagonalization with overlap

---- Real-time Memory Report at c_bands before calling an iterative solver
            61 MiB given to the printing process from OS
             0 MiB allocation reported by mallinfo(arena+hblkhd)
           160 MiB available memory on the node where the printing process lives
------------------
     ethr =  1.48E-13,  avg # of iterations =  2.0


     -----------------------------------------------
     Non-local corr. energy    =       0.14501653 Ry
     -----------------------------------------------


     total cpu time spent up to now is       84.4 secs

     WARNING: integrated charge=    16.00000593, expected=    16.00000000

     total energy              =     -45.57294014 Ry
     estimated scf accuracy    <          8.0E-11 Ry

     iteration #  8     ecut=    30.00 Ry     beta= 0.30
     Davidson diagonalization with overlap

---- Real-time Memory Report at c_bands before calling an iterative solver
            61 MiB given to the printing process from OS
             0 MiB allocation reported by mallinfo(arena+hblkhd)
           159 MiB available memory on the node where the printing process lives
------------------
     ethr =  1.48E-13,  avg # of iterations =  2.0


     -----------------------------------------------
     Non-local corr. energy    =       0.14501647 Ry
     -----------------------------------------------


     total cpu time spent up to now is       84.6 secs

     End of self-consistent calculation

          k = 0.1252 0.2169 0.0961 (   626 PWs)   bands (ev):

   -11.0549 -10.7705   0.3443   1.2542   1.3014   2.0159   2.3227   2.3560
    14.1181  15.5278  15.9093  16.6493

     occupation numbers 
     1.0000   1.0000   1.0000   1.0000   1.0000   1.0000   1.0000   1.0000
     0.0000   0.0000   0.0000   0.0000

          k = 0.1252 0.5061 0.0961 (   635 PWs)   bands (ev):

    -7.5023  -7.2858  -4.5898  -4.4244   0.0135   0.0996   4.3519   5.4482
     9.3907  10.1241  16.2874  16.7080

     occupation numbers 
     1.0000   1.0000   1.0000   1.0000   1.0000   1.0000   1.0000   1.0000
     0.0000   0.0000   0.0000   0.0000

          k = 0.1252-0.3615 0.0961 (   638 PWs)   bands (ev):

    -9.5966  -9.3376  -1.5632  -1.4473   0.7865   0.8589   2.0715   3.6055
    12.3869  13.0187  15.7723  16.6643

     occupation numbers 
     1.0000   1.0000   1.0000   1.0000   1.0000   1.0000   1.0000   1.0000
     0.0000   0.0000   0.0000   0.0000

          k = 0.1252-0.0723 0.0961 (   616 PWs)   bands (ev):

   -11.7955 -11.4981  -0.5481   1.1771   3.0458   3.0976   3.7228   3.7611
    13.2674  15.8392  15.9824  17.3039

     occupation numbers 
     1.0000   1.0000   1.0000   1.0000   1.0000   1.0000   1.0000   1.0000
     0.0000   0.0000   0.0000   0.0000

          k = 0.3757 0.6507 0.0961 (   638 PWs)   bands (ev):

    -5.8638  -5.7572  -4.9620  -4.9157  -2.3114  -2.2036   6.0697   6.6841
     8.4396   8.6014  18.0921  18.2727

     occupation numbers 
     1.0000   1.0000   1.0000   1.0000   1.0000   1.0000   1.0000   1.0000
     0.0000   0.0000   0.0000   0.0000

          k = 0.3757-0.2169 0.0961 (   632 PWs)   bands (ev):

    -8.8804  -8.6342  -3.2776  -3.1220   1.3983   1.4568   2.8689   4.2816
    10.8458  11.7578  14.9450  15.2864

     occupation numbers 
[...]

     WARNING: integrated charge=    16.00000545, expected=    16.00000000

     total energy              =     -45.55368925 Ry
     estimated scf accuracy    <       0.12713983 Ry

     iteration #  3     ecut=    30.00 Ry     beta= 0.30
     Davidson diagonalization with overlap

---- Real-time Memory Report at c_bands before calling an iterative solver
            62 MiB given to the printing process from OS
             0 MiB allocation reported by mallinfo(arena+hblkhd)
           160 MiB available memory on the node where the printing process lives
------------------
     ethr =  7.95E-04,  avg # of iterations =  2.5


     -----------------------------------------------
     Non-local corr. energy    =       0.14468804 Ry
     -----------------------------------------------


     total cpu time spent up to now is       98.9 secs

     WARNING: integrated charge=    16.00000555, expected=    16.00000000

     total energy              =     -45.57283083 Ry
     estimated scf accuracy    <       0.00205294 Ry

     iteration #  4     ecut=    30.00 Ry     beta= 0.30
     Davidson diagonalization with overlap

---- Real-time Memory Report at c_bands before calling an iterative solver
            62 MiB given to the printing process from OS
             0 MiB allocation reported by mallinfo(arena+hblkhd)
           160 MiB available memory on the node where the printing process lives
------------------
     ethr =  1.28E-05,  avg # of iterations =  3.8


     -----------------------------------------------
     Non-local corr. energy    =       0.14539602 Ry
     -----------------------------------------------


     total cpu time spent up to now is       99.1 secs

     WARNING: integrated charge=    16.00000572, expected=    16.00000000

     total energy              =     -45.57299854 Ry
     estimated scf accuracy    <       0.00022790 Ry

     iteration #  5     ecut=    30.00 Ry     beta= 0.30
     Davidson diagonalization with overlap

---- Real-time Memory Report at c_bands before calling an iterative solver
            62 MiB given to the printing process from OS
             0 MiB allocation reported by mallinfo(arena+hblkhd)
           160 MiB available memory on the node where the printing process lives
------------------
     c_bands:  1 eigenvalues not converged
     ethr =  1.42E-06,  avg # of iterations =  5.8


     -----------------------------------------------
     Non-local corr. energy    =       0.14557019 Ry
     -----------------------------------------------


     total cpu time spent up to now is       99.4 secs

     WARNING: integrated charge=    16.00000576, expected=    16.00000000

     total energy              =     -45.57302529 Ry
     estimated scf accuracy    <       0.00000210 Ry

     iteration #  6     ecut=    30.00 Ry     beta= 0.30
     Davidson diagonalization with overlap

---- Real-time Memory Report at c_bands before calling an iterative solver
            62 MiB given to the printing process from OS
             0 MiB allocation reported by mallinfo(arena+hblkhd)
           159 MiB available memory on the node where the printing process lives
------------------
     ethr =  1.31E-08,  avg # of iterations =  3.0


     -----------------------------------------------
     Non-local corr. energy    =       0.14552466 Ry
     -----------------------------------------------


     total cpu time spent up to now is       99.7 secs

     WARNING: integrated charge=    16.00000575, expected=    16.00000000

     total energy              =     -45.57302646 Ry
     estimated scf accuracy    <       0.00000248 Ry

     iteration #  7     ecut=    30.00 Ry     beta= 0.30
     Davidson diagonalization with overlap

---- Real-time Memory Report at c_bands before calling an iterative solver
            62 MiB given to the printing process from OS
             0 MiB allocation reported by mallinfo(arena+hblkhd)
           159 MiB available memory on the node where the printing process lives
------------------
     ethr =  1.31E-08,  avg # of iterations =  1.2


     -----------------------------------------------
     Non-local corr. energy    =       0.14550184 Ry
     -----------------------------------------------


     total cpu time spent up to now is       99.9 secs

     WARNING: integrated charge=    16.00000575, expected=    16.00000000

     total energy              =     -45.57302672 Ry
     estimated scf accuracy    <       0.00000026 Ry

     iteration #  8     ecut=    30.00 Ry     beta= 0.30
     Davidson diagonalization with overlap

---- Real-time Memory Report at c_bands before calling an iterative solver
            62 MiB given to the printing process from OS
             0 MiB allocation reported by mallinfo(arena+hblkhd)
           159 MiB available memory on the node where the printing process lives
------------------
     ethr =  1.61E-09,  avg # of iterations =  2.0


     -----------------------------------------------
     Non-local corr. energy    =       0.14550324 Ry
     -----------------------------------------------


     total cpu time spent up to now is      100.2 secs

     WARNING: integrated charge=    16.00000575, expected=    16.00000000

     total energy              =     -45.57302689 Ry
     estimated scf accuracy    <          9.7E-09 Ry

     iteration #  9     ecut=    30.00 Ry     beta= 0.30
     Davidson diagonalization with overlap

---- Real-time Memory Report at c_bands before calling an iterative solver
            63 MiB given to the printing process from OS
             0 MiB allocation reported by mallinfo(arena+hblkhd)
           159 MiB available memory on the node where the printing process lives
------------------
     ethr =  6.09E-11,  avg # of iterations =  1.0


     -----------------------------------------------
     Non-local corr. energy    =       0.14550636 Ry
     -----------------------------------------------


     total cpu time spent up to now is      100.4 secs

     WARNING: integrated charge=    16.00000575, expected=    16.00000000

     total energy              =     -45.57302695 Ry
     estimated scf accuracy    <          3.5E-09 Ry

     iteration # 10     ecut=    30.00 Ry     beta= 0.30
     Davidson diagonalization with overlap

---- Real-time Memory Report at c_bands before calling an iterative solver
            63 MiB given to the printing process from OS
             0 MiB allocation reported by mallinfo(arena+hblkhd)
           159 MiB available memory on the node where the printing process lives
------------------
     ethr =  2.20E-11,  avg # of iterations =  2.0


     -----------------------------------------------
     Non-local corr. energy    =       0.14550613 Ry
     -----------------------------------------------


     total cpu time spent up to now is      100.6 secs

     WARNING: integrated charge=    16.00000575, expected=    16.00000000

     total energy              =     -45.57302698 Ry
     estimated scf accuracy    <          4.7E-11 Ry

     iteration # 11     ecut=    30.00 Ry     beta= 0.30
     Davidson diagonalization with overlap

---- Real-time Memory Report at c_bands before calling an iterative solver
            63 MiB given to the printing process from OS
             0 MiB allocation reported by mallinfo(arena+hblkhd)
           159 MiB available memory on the node where the printing process lives
------------------
     ethr =  2.94E-13,  avg # of iterations =  2.0


     -----------------------------------------------
     Non-local corr. energy    =       0.14550623 Ry
     -----------------------------------------------


     total cpu time spent up to now is      100.9 secs

     WARNING: integrated charge=    16.00000575, expected=    16.00000000

     total energy              =     -45.57302699 Ry
     estimated scf accuracy    <          1.2E-11 Ry

     iteration # 12     ecut=    30.00 Ry     beta= 0.30
     Davidson diagonalization with overlap

---- Real-time Memory Report at c_bands before calling an iterative solver
            63 MiB given to the printing process from OS
             0 MiB allocation reported by mallinfo(arena+hblkhd)
           159 MiB available memory on the node where the printing process lives
------------------
     ethr =  1.00E-13,  avg # of iterations =  2.0


     -----------------------------------------------
     Non-local corr. energy    =       0.14550583 Ry
     -----------------------------------------------


     total cpu time spent up to now is      101.1 secs

     End of self-consistent calculation

          k = 0.1252 0.2169 0.0957 (   626 PWs)   bands (ev):

   -11.1006 -10.8249   0.3091   1.2040   1.2494   1.9472   2.2721   2.3041
    14.0166  15.4839  15.8555  16.5978

     occupation numbers 
     1.0000   1.0000   1.0000   1.0000   1.0000   1.0000   1.0000   1.0000
     0.0000   0.0000   0.0000   0.0000

          k = 0.1252 0.5061 0.0957 (   640 PWs)   bands (ev):

    -7.5492  -7.3397  -4.6377  -4.4778  -0.0359   0.0471   4.3137   5.3873
     9.3459  10.0651  16.2421  16.6513

     occupation numbers 
     1.0000   1.0000   1.0000   1.0000   1.0000   1.0000   1.0000   1.0000
     0.0000   0.0000   0.0000   0.0000

          k = 0.1252-0.3615 0.0957 (   639 PWs)   bands (ev):

    -9.6427  -9.3918  -1.6120  -1.5002   0.7368   0.8065   2.0356   3.5383
    12.3444  12.9618  15.6785  16.6170

     occupation numbers 
     1.0000   1.0000   1.0000   1.0000   1.0000   1.0000   1.0000   1.0000
     0.0000   0.0000   0.0000   0.0000

          k = 0.1252-0.0723 0.0957 (   615 PWs)   bands (ev):

   -11.8409 -11.5527  -0.5830   1.1078   2.9955   3.0453   3.6722   3.7090
    13.1629  15.7895  15.9290  17.2543

     occupation numbers 
     1.0000   1.0000   1.0000   1.0000   1.0000   1.0000   1.0000   1.0000
     0.0000   0.0000   0.0000   0.0000

          k = 0.3757 0.6507 0.0957 (   634 PWs)   bands (ev):

    -5.9122  -5.8091  -5.0122  -4.9674  -2.3602  -2.2561   6.0298   6.6313
     8.3895   8.5444  18.0401  18.2171

     occupation numbers 
     1.0000   1.0000   1.0000   1.0000   1.0000   1.0000   1.0000   1.0000
     0.0000   0.0000   0.0000   0.0000

          k = 0.3757-0.2169 0.0957 (   635 PWs)   bands (ev):

    -8.9267  -8.6883  -3.3256  -3.1753   1.3483   1.4045   2.8323   4.2161
    10.8045  11.6973  14.8991  15.2295

     occupation numbers 
     1.0000   1.0000   1.0000   1.0000   1.0000   1.0000   1.0000   1.0000
     0.0000   0.0000   0.0000   0.0000

     the Fermi energy is     7.6925 ev

     WARNING: integrated charge=    16.00000575, expected=    16.00000000

!    total energy              =     -45.57302701 Ry
     estimated scf accuracy    <          1.7E-12 Ry
     smearing contrib. (-TS)   =       0.00000009 Ry
     internal energy E=F+TS    =     -45.57302709 Ry

     The total energy is F=E-TS. E is the sum of the following terms:
     one-electron contribution =      -8.03682605 Ry
     hartree contribution      =      12.16093965 Ry
     xc contribution           =     -14.04660060 Ry
     ewald contribution        =     -35.65054010 Ry

     convergence has been achieved in  12 iterations

     Forces acting on atoms (cartesian axes, Ry/au):

     atom    1 type  1   force =     0.00000000    0.00000000   -0.00000000
     atom    2 type  1   force =     0.00000000    0.00000000   -0.00000000
     atom    3 type  1   force =    -0.00000000   -0.00000000    0.00000000
     atom    4 type  1   force =    -0.00000000   -0.00000000    0.00000000
     The non-local contrib.  to forces
     atom    1 type  1   force =     0.00000000    0.00000000   -0.00000000
     atom    2 type  1   force =    -0.00000000   -0.00000000    0.00000000
     atom    3 type  1   force =    -0.00000000   -0.00000000    0.00000000
     atom    4 type  1   force =    -0.00000000    0.00000000   -0.00000000
     The ionic contribution  to forces
     atom    1 type  1   force =     0.00000855   -0.00000494    0.00000000
     atom    2 type  1   force =    -0.00000858    0.00000496    0.00000000
     atom    3 type  1   force =    -0.00000855    0.00000494   -0.00000000
     atom    4 type  1   force =     0.00000858   -0.00000496   -0.00000000
     The local contribution  to forces
     atom    1 type  1   force =    -0.00000000    0.00000000    0.00000000
     atom    2 type  1   force =    -0.00000800    0.00000462    0.00000000
     atom    3 type  1   force =    -0.00000000   -0.00000000    0.00000000
     atom    4 type  1   force =     0.00000800   -0.00000462    0.00000000
     The core correction contribution to forces
     atom    1 type  1   force =     0.00000000    0.00000000    0.00000000
     atom    2 type  1   force =     0.00000000    0.00000000    0.00000000
     atom    3 type  1   force =     0.00000000    0.00000000    0.00000000
     atom    4 type  1   force =     0.00000000    0.00000000    0.00000000
     The Hubbard contrib.    to forces
     atom    1 type  1   force =     0.00000000    0.00000000    0.00000000
     atom    2 type  1   force =     0.00000000    0.00000000    0.00000000
     atom    3 type  1   force =     0.00000000    0.00000000    0.00000000
     atom    4 type  1   force =     0.00000000    0.00000000    0.00000000
     The SCF correction term to forces
     atom    1 type  1   force =    -0.00000000    0.00000000   -0.00000000
     atom    2 type  1   force =     0.00000000   -0.00000000    0.00000000
     atom    3 type  1   force =     0.00000000   -0.00000000    0.00000000
     atom    4 type  1   force =    -0.00000000    0.00000000   -0.00000000

     Total force =     0.000000     Total SCF correction =     0.000000


     Computing stress (Cartesian axis) and pressure

          total   stress  (Ry/bohr**3)                   (kbar)     P=        0.09
  -0.00000036   0.00000000   0.00000000           -0.05        0.00        0.00
   0.00000000  -0.00000036   0.00000000            0.00       -0.05        0.00
   0.00000000   0.00000000   0.00000246            0.00        0.00        0.36

     kinetic stress (kbar)  11016.20      0.00      0.00
                                0.00  11016.20      0.00
                                0.00      0.00  12721.75

     local   stress (kbar) -17089.44      0.01     -0.00
                                0.01 -17089.43     -0.00
                               -0.00     -0.00  24423.49

     nonloc. stress (kbar)   -469.71      0.00      0.00
                                0.00   -469.71      0.00
                                0.00      0.00   -464.72

     hartree stress (kbar)   6786.36     -0.00      0.00
                               -0.00   6786.36     -0.00
                                0.00     -0.00  -5731.82

     exc-cor stress (kbar)  -2803.20     -0.00     -0.00
                               -0.00  -2803.20      0.00
                               -0.00      0.00  -2933.26

     corecor stress (kbar)      0.00      0.00      0.00
                                0.00      0.00      0.00
                                0.00      0.00      0.00

     ewald   stress (kbar)   2552.38     -0.03      0.00
                               -0.03   2552.35     -0.00
                                0.00     -0.00 -28090.80

     hubbard stress (kbar)      0.00      0.00      0.00
                                0.00      0.00      0.00
                                0.00      0.00      0.00

     DFT-D   stress (kbar)      0.00      0.00      0.00
                                0.00      0.00      0.00
                                0.00      0.00      0.00

     XDM     stress (kbar)      0.00      0.00      0.00
                                0.00      0.00      0.00
                                0.00      0.00      0.00

     dft-nl  stress (kbar)      7.37     -0.00      0.00
                               -0.00      7.37      0.00
                                0.00      0.00     75.71

     TS-vdW  stress (kbar)      0.00      0.00      0.00
                                0.00      0.00      0.00
                                0.00      0.00      0.00


                                0.00      0.00      0.00
                                0.00      0.00      0.00


                                0.00      0.00      0.00


     Writing all to output data dir ././graphite_vdw.save/

     init_run     :     73.38s CPU     73.60s WALL (       2 calls)
     electrons    :     18.60s CPU     19.80s WALL (       9 calls)
     update_pot   :      2.80s CPU      2.87s WALL (       7 calls)
     forces       :      1.36s CPU      1.37s WALL (       9 calls)
     stress       :      3.76s CPU      3.84s WALL (       9 calls)

     Called by init_run:
     wfcinit      :      0.10s CPU      0.10s WALL (       2 calls)
     wfcinit:atom :      0.00s CPU      0.00s WALL (      12 calls)
     wfcinit:wfcr :      0.09s CPU      0.09s WALL (      12 calls)
     potinit      :     72.91s CPU     73.10s WALL (       2 calls)
     hinit0       :      0.35s CPU      0.36s WALL (       2 calls)

     Called by electrons:
     c_bands      :      7.48s CPU      7.75s WALL (      82 calls)
     sum_band     :      1.90s CPU      1.95s WALL (      82 calls)
     v_of_rho     :     81.63s CPU     82.40s WALL (      86 calls)
     v_h          :      0.05s CPU      0.07s WALL (      86 calls)
     v_xc         :     81.57s CPU     82.33s WALL (      86 calls)
     newd         :      0.81s CPU      1.15s WALL (      86 calls)
     mix_rho      :      0.13s CPU      0.14s WALL (      82 calls)
     vdW_kernel   :     72.43s CPU     72.59s WALL (       1 calls)

     Called by c_bands:
     init_us_2    :      0.14s CPU      0.14s WALL (    1104 calls)
     init_us_2:cp :      0.13s CPU      0.14s WALL (    1104 calls)
     cegterg      :      7.24s CPU      7.50s WALL (     492 calls)

     Called by sum_band:
     sum_band:wei :      0.01s CPU      0.01s WALL (      82 calls)
     sum_band:loo :      1.07s CPU      1.09s WALL (      82 calls)
     sum_band:buf :      0.01s CPU      0.01s WALL (     492 calls)
     sum_band:ini :      0.06s CPU      0.06s WALL (     492 calls)
     sum_band:cal :      0.15s CPU      0.15s WALL (     492 calls)
     sum_band:bec :      0.00s CPU      0.00s WALL (     492 calls)
     addusdens    :      0.62s CPU      0.65s WALL (      82 calls)
     addusd:skk   :      0.02s CPU      0.02s WALL (      82 calls)
     addusd:dgemm :      0.23s CPU      0.25s WALL (      82 calls)
     addusd:qvan2 :      0.23s CPU      0.23s WALL (      82 calls)

     Called by *egterg:
     cdiaghg      :      0.21s CPU      0.22s WALL (    1500 calls)
     cegterg:over :      0.37s CPU      0.38s WALL (    1080 calls)
     cegterg:upda :      0.17s CPU      0.18s WALL (    1080 calls)
     cegterg:last :      0.35s CPU      0.36s WALL (     921 calls)
     h_psi        :      5.66s CPU      5.86s WALL (    1584 calls)
     s_psi        :      0.34s CPU      0.36s WALL (    1584 calls)
     g_psi        :      0.02s CPU      0.02s WALL (    1080 calls)

     Called by h_psi:
     h_psi:calbec :      0.43s CPU      0.44s WALL (    1584 calls)
     vloc_psi     :      4.86s CPU      5.03s WALL (    1584 calls)
     add_vuspsi   :      0.35s CPU      0.36s WALL (    1584 calls)

     General routines
     calbec       :      0.66s CPU      0.68s WALL (    2346 calls)
     fft          :      3.35s CPU      3.42s WALL (    5880 calls)
     ffts         :      0.04s CPU      0.04s WALL (     168 calls)
     fftw         :      5.15s CPU      5.33s WALL (   36890 calls)
     interpolate  :      0.07s CPU      0.09s WALL (      86 calls)

     Parallel routines

     PWSCF        :   1m40.06s CPU   1m41.71s WALL


   This run was terminated on:   8:45:46   2Feb2022            

=------------------------------------------------------------------------------=
   JOB DONE.
=------------------------------------------------------------------------------=
