
     Program PWSCF v.7.0 starts on  2Feb2022 at  8:43:24 

     This program is part of the open-source Quantum ESPRESSO suite
     for quantum simulation of materials; please cite
         "P. Giannozzi et al., J. Phys.:Condens. Matter 21 395502 (2009);
         "P. Giannozzi et al., J. Phys.:Condens. Matter 29 465901 (2017);
         "P. Giannozzi et al., J. Chem. Phys. 152 154105 (2020);
          URL http://www.quantum-espresso.org", 
     in publications or presentations arising from this work. More details at
     http://www.quantum-espresso.org/quote

     Parallel version (MPI), running on     1 processors

     MPI processes distributed on     1 nodes
     193 MiB available memory on the printing compute node when the environment starts

     Reading input from 01-graphite-pbe.in

     Current dimensions of program PWSCF are:
     Max number of different atomic species (ntypx) = 10
     Max number of k-points (npk) =  40000
     Max angular momentum in pseudopotentials (lmaxx) =  4
     file C.pbe-rrkjus.UPF: wavefunction(s)  2S 2P renormalized

     Subspace diagonalization in iterative solution of the eigenvalue problem:
     a serial algorithm will be used


     G-vector sticks info
     --------------------
     sticks:   dense  smooth     PW     G-vecs:    dense   smooth      PW
     Sum         361     187     61                14339     5053    1045

     Using Slab Decomposition



     bravais-lattice index     =            4
     lattice parameter (alat)  =       4.6601  a.u.
     unit-cell volume          =     227.8448 (a.u.)^3
     number of atoms/cell      =            4
     number of atomic types    =            1
     number of electrons       =        16.00
     number of Kohn-Sham states=           12
     kinetic-energy cutoff     =      30.0000  Ry
     charge density cutoff     =     240.0000  Ry
     scf convergence threshold =      1.0E-09
     mixing beta               =       0.3000
     number of iterations used =            8  plain     mixing
     energy convergence thresh.=      1.0E-04
     force convergence thresh. =      1.0E-03
     press convergence thresh. =      5.0E-01
     Exchange-correlation=  SLA  PW   PBE  PBE
                           (   1   4   3   4   0   0   0)
     nstep                     =           50


     celldm(1)=   4.660065  celldm(2)=   0.000000  celldm(3)=   2.599757
     celldm(4)=   0.000000  celldm(5)=   0.000000  celldm(6)=   0.000000

     crystal axes: (cart. coord. in units of alat)
               a(1) = (   1.000000   0.000000   0.000000 )  
               a(2) = (  -0.500000   0.866025   0.000000 )  
               a(3) = (   0.000000   0.000000   2.599757 )  

     reciprocal axes: (cart. coord. in units 2 pi/alat)
               b(1) = (  1.000000  0.577350 -0.000000 )  
               b(2) = (  0.000000  1.154701  0.000000 )  
               b(3) = (  0.000000 -0.000000  0.384651 )  


     PseudoPot. # 1 for C  read from file:
     /home/user/pseudo_dir/C.pbe-rrkjus.UPF
     MD5 check sum: 00fb224312de0c5b6853bd333518df6f
     Pseudo is Ultrasoft, Zval =  4.0
     Generated by new atomic code, or converted to UPF format
     Using radial grid of  627 points,  4 beta functions with: 
                l(1) =   0
                l(2) =   0
                l(3) =   1
                l(4) =   1
     Q(r) pseudized with 0 coefficients 


     atomic species   valence    mass     pseudopotential
        C              4.00    12.01100     C ( 1.00)

     24 Sym. Ops., with inversion, found (12 have fractional translation)


                                    s                        frac. trans.

      isym =  1     identity                                     

 cryst.   s( 1) = (     1          0          0      )
                  (     0          1          0      )
                  (     0          0          1      )

 cart.    s( 1) = (  1.0000000  0.0000000  0.0000000 )
                  (  0.0000000  1.0000000  0.0000000 )
                  (  0.0000000  0.0000000  1.0000000 )


      isym =  2     180 deg rotation - cart. axis [0,0,1]        

 cryst.   s( 2) = (    -1          0          0      )    f =(  0.0000000 )
                  (     0         -1          0      )       (  0.0000000 )
                  (     0          0          1      )       (  0.5000000 )

 cart.    s( 2) = ( -1.0000000  0.0000000  0.0000000 )    f =(  0.0000000 )
                  (  0.0000000 -1.0000000  0.0000000 )       (  0.0000000 )
                  (  0.0000000  0.0000000  1.0000000 )       (  1.2998783 )


      isym =  3     180 deg rotation - cart. axis [0,1,0]        

 cryst.   s( 3) = (    -1          0          0      )    f =(  0.0000000 )
                  (     1          1          0      )       (  0.0000000 )
                  (     0          0         -1      )       (  0.5000000 )

 cart.    s( 3) = ( -1.0000000  0.0000000  0.0000000 )    f =(  0.0000000 )
                  (  0.0000000  1.0000000  0.0000000 )       (  0.0000000 )
                  (  0.0000000  0.0000000 -1.0000000 )       (  1.2998783 )


      isym =  4     180 deg rotation - cart. axis [1,0,0]        

 cryst.   s( 4) = (     1          0          0      )
                  (    -1         -1          0      )
                  (     0          0         -1      )

 cart.    s( 4) = (  1.0000000  0.0000000  0.0000000 )
                  (  0.0000000 -1.0000000  0.0000000 )
                  (  0.0000000  0.0000000 -1.0000000 )


      isym =  5      60 deg rotation - cryst. axis [0,0,1]       

 cryst.   s( 5) = (     1          1          0      )    f =(  0.0000000 )
                  (    -1          0          0      )       (  0.0000000 )
                  (     0          0          1      )       (  0.5000000 )

 cart.    s( 5) = (  0.5000000 -0.8660254  0.0000000 )    f =(  0.0000000 )
                  (  0.8660254  0.5000000  0.0000000 )       (  0.0000000 )
                  (  0.0000000  0.0000000  1.0000000 )       (  1.2998783 )


      isym =  6      60 deg rotation - cryst. axis [0,0,-1]      

 cryst.   s( 6) = (     0         -1          0      )    f =(  0.0000000 )
                  (     1          1          0      )       (  0.0000000 )
                  (     0          0          1      )       (  0.5000000 )

 cart.    s( 6) = (  0.5000000  0.8660254  0.0000000 )    f =(  0.0000000 )
                  ( -0.8660254  0.5000000  0.0000000 )       (  0.0000000 )
                  (  0.0000000  0.0000000  1.0000000 )       (  1.2998783 )


      isym =  7     120 deg rotation - cryst. axis [0,0,1]       

 cryst.   s( 7) = (     0          1          0      )
                  (    -1         -1          0      )
                  (     0          0          1      )

 cart.    s( 7) = ( -0.5000000 -0.8660254  0.0000000 )
                  (  0.8660254 -0.5000000  0.0000000 )
                  (  0.0000000  0.0000000  1.0000000 )


      isym =  8     120 deg rotation - cryst. axis [0,0,-1]      

 cryst.   s( 8) = (    -1         -1          0      )
                  (     1          0          0      )
                  (     0          0          1      )

 cart.    s( 8) = ( -0.5000000  0.8660254  0.0000000 )
                  ( -0.8660254 -0.5000000  0.0000000 )
                  (  0.0000000  0.0000000  1.0000000 )


      isym =  9     180 deg rotation - cryst. axis [1,-1,0]      

 cryst.   s( 9) = (     0         -1          0      )    f =(  0.0000000 )
                  (    -1          0          0      )       (  0.0000000 )
                  (     0          0         -1      )       (  0.5000000 )

 cart.    s( 9) = (  0.5000000 -0.8660254  0.0000000 )    f =(  0.0000000 )
                  ( -0.8660254 -0.5000000  0.0000000 )       (  0.0000000 )
                  (  0.0000000  0.0000000 -1.0000000 )       (  1.2998783 )


      isym = 10     180 deg rotation - cryst. axis [2,1,0]       

 cryst.   s(10) = (     1          1          0      )    f =(  0.0000000 )
                  (     0         -1          0      )       (  0.0000000 )
                  (     0          0         -1      )       (  0.5000000 )

 cart.    s(10) = (  0.5000000  0.8660254  0.0000000 )    f =(  0.0000000 )
                  (  0.8660254 -0.5000000  0.0000000 )       (  0.0000000 )
                  (  0.0000000  0.0000000 -1.0000000 )       (  1.2998783 )


      isym = 11     180 deg rotation - cryst. axis [0,1,0]       

 cryst.   s(11) = (    -1         -1          0      )
                  (     0          1          0      )
                  (     0          0         -1      )

 cart.    s(11) = ( -0.5000000 -0.8660254  0.0000000 )
                  ( -0.8660254  0.5000000  0.0000000 )
                  (  0.0000000  0.0000000 -1.0000000 )


      isym = 12     180 deg rotation - cryst. axis [1,1,0]       

 cryst.   s(12) = (     0          1          0      )
                  (     1          0          0      )
                  (     0          0         -1      )

 cart.    s(12) = ( -0.5000000  0.8660254  0.0000000 )
                  (  0.8660254  0.5000000  0.0000000 )
                  (  0.0000000  0.0000000 -1.0000000 )


      isym = 13     inversion                                    

 cryst.   s(13) = (    -1          0          0      )
                  (     0         -1          0      )
                  (     0          0         -1      )

 cart.    s(13) = ( -1.0000000  0.0000000  0.0000000 )
                  (  0.0000000 -1.0000000  0.0000000 )
                  (  0.0000000  0.0000000 -1.0000000 )


      isym = 14     inv. 180 deg rotation - cart. axis [0,0,1]   

 cryst.   s(14) = (     1          0          0      )    f =(  0.0000000 )
                  (     0          1          0      )       (  0.0000000 )
                  (     0          0         -1      )       (  0.5000000 )

 cart.    s(14) = (  1.0000000  0.0000000  0.0000000 )    f =(  0.0000000 )
                  (  0.0000000  1.0000000  0.0000000 )       (  0.0000000 )
                  (  0.0000000  0.0000000 -1.0000000 )       (  1.2998783 )


      isym = 15     inv. 180 deg rotation - cart. axis [0,1,0]   

 cryst.   s(15) = (     1          0          0      )    f =(  0.0000000 )
                  (    -1         -1          0      )       (  0.0000000 )
                  (     0          0          1      )       (  0.5000000 )

 cart.    s(15) = (  1.0000000  0.0000000  0.0000000 )    f =(  0.0000000 )
                  (  0.0000000 -1.0000000  0.0000000 )       (  0.0000000 )
                  (  0.0000000  0.0000000  1.0000000 )       (  1.2998783 )


      isym = 16     inv. 180 deg rotation - cart. axis [1,0,0]   

 cryst.   s(16) = (    -1          0          0      )
                  (     1          1          0      )
                  (     0          0          1      )

 cart.    s(16) = ( -1.0000000  0.0000000  0.0000000 )
                  (  0.0000000  1.0000000  0.0000000 )
                  (  0.0000000  0.0000000  1.0000000 )


      isym = 17     inv.  60 deg rotation - cryst. axis [0,0,1]  

 cryst.   s(17) = (    -1         -1          0      )    f =(  0.0000000 )
                  (     1          0          0      )       (  0.0000000 )
                  (     0          0         -1      )       (  0.5000000 )

 cart.    s(17) = ( -0.5000000  0.8660254  0.0000000 )    f =(  0.0000000 )
                  ( -0.8660254 -0.5000000  0.0000000 )       (  0.0000000 )
                  (  0.0000000  0.0000000 -1.0000000 )       (  1.2998783 )


      isym = 18     inv.  60 deg rotation - cryst. axis [0,0,-1] 

 cryst.   s(18) = (     0          1          0      )    f =(  0.0000000 )
                  (    -1         -1          0      )       (  0.0000000 )
                  (     0          0         -1      )       (  0.5000000 )

 cart.    s(18) = ( -0.5000000 -0.8660254  0.0000000 )    f =(  0.0000000 )
                  (  0.8660254 -0.5000000  0.0000000 )       (  0.0000000 )
                  (  0.0000000  0.0000000 -1.0000000 )       (  1.2998783 )


      isym = 19     inv. 120 deg rotation - cryst. axis [0,0,1]  

 cryst.   s(19) = (     0         -1          0      )
                  (     1          1          0      )
                  (     0          0         -1      )

 cart.    s(19) = (  0.5000000  0.8660254  0.0000000 )
                  ( -0.8660254  0.5000000  0.0000000 )
                  (  0.0000000  0.0000000 -1.0000000 )


      isym = 20     inv. 120 deg rotation - cryst. axis [0,0,-1] 

 cryst.   s(20) = (     1          1          0      )
                  (    -1          0          0      )
                  (     0          0         -1      )

 cart.    s(20) = (  0.5000000 -0.8660254  0.0000000 )
                  (  0.8660254  0.5000000  0.0000000 )
                  (  0.0000000  0.0000000 -1.0000000 )


      isym = 21     inv. 180 deg rotation - cryst. axis [1,-1,0] 

 cryst.   s(21) = (     0          1          0      )    f =(  0.0000000 )
                  (     1          0          0      )       (  0.0000000 )
                  (     0          0          1      )       (  0.5000000 )

 cart.    s(21) = ( -0.5000000  0.8660254  0.0000000 )    f =(  0.0000000 )
                  (  0.8660254  0.5000000  0.0000000 )       (  0.0000000 )
                  (  0.0000000  0.0000000  1.0000000 )       (  1.2998783 )


      isym = 22     inv. 180 deg rotation - cryst. axis [2,1,0]  

 cryst.   s(22) = (    -1         -1          0      )    f =(  0.0000000 )
                  (     0          1          0      )       (  0.0000000 )
                  (     0          0          1      )       (  0.5000000 )

 cart.    s(22) = ( -0.5000000 -0.8660254  0.0000000 )    f =(  0.0000000 )
                  ( -0.8660254  0.5000000  0.0000000 )       (  0.0000000 )
                  (  0.0000000  0.0000000  1.0000000 )       (  1.2998783 )


      isym = 23     inv. 180 deg rotation - cryst. axis [0,1,0]  

 cryst.   s(23) = (     1          1          0      )
                  (     0         -1          0      )
                  (     0          0          1      )

 cart.    s(23) = (  0.5000000  0.8660254  0.0000000 )
                  (  0.8660254 -0.5000000  0.0000000 )
                  (  0.0000000  0.0000000  1.0000000 )


      isym = 24     inv. 180 deg rotation - cryst. axis [1,1,0]  

 cryst.   s(24) = (     0         -1          0      )
                  (    -1          0          0      )
                  (     0          0          1      )

 cart.    s(24) = (  0.5000000 -0.8660254  0.0000000 )
                  ( -0.8660254 -0.5000000  0.0000000 )
                  (  0.0000000  0.0000000  1.0000000 )


     point group D_6h(6/mmm)
     there are 12 classes
     the character table:

       E     2C6   2C3   C2    3C2'  3C2'' i     2S3   2S6   s_h   3s_d  3s_v 
A_1g   1.00  1.00  1.00  1.00  1.00  1.00  1.00  1.00  1.00  1.00  1.00  1.00
A_2g   1.00  1.00  1.00  1.00 -1.00 -1.00  1.00  1.00  1.00  1.00 -1.00 -1.00
B_1g   1.00 -1.00  1.00 -1.00  1.00 -1.00  1.00 -1.00  1.00 -1.00  1.00 -1.00
B_2g   1.00 -1.00  1.00 -1.00 -1.00  1.00  1.00 -1.00  1.00 -1.00 -1.00  1.00
E_1g   2.00  1.00 -1.00 -2.00  0.00  0.00  2.00  1.00 -1.00 -2.00  0.00  0.00
E_2g   2.00 -1.00 -1.00  2.00  0.00  0.00  2.00 -1.00 -1.00  2.00  0.00  0.00
A_1u   1.00  1.00  1.00  1.00  1.00  1.00 -1.00 -1.00 -1.00 -1.00 -1.00 -1.00
A_2u   1.00  1.00  1.00  1.00 -1.00 -1.00 -1.00 -1.00 -1.00 -1.00  1.00  1.00
B_1u   1.00 -1.00  1.00 -1.00  1.00 -1.00 -1.00  1.00 -1.00  1.00 -1.00  1.00
B_2u   1.00 -1.00  1.00 -1.00 -1.00  1.00 -1.00  1.00 -1.00  1.00  1.00 -1.00
E_1u   2.00  1.00 -1.00 -2.00  0.00  0.00 -2.00 -1.00  1.00  2.00  0.00  0.00
E_2u   2.00 -1.00 -1.00  2.00  0.00  0.00 -2.00  1.00  1.00 -2.00  0.00  0.00

     the symmetry operations in each class and the name of the first element:

     E        1
          identity                                               
     2C6      5    6
           60 deg rotation - cryst. axis [0,0,1]                 
     2C3      7    8
          120 deg rotation - cryst. axis [0,0,1]                 
     C2       2
          180 deg rotation - cart. axis [0,0,1]                  
     3C2'     4   12   11
          180 deg rotation - cart. axis [1,0,0]                  
     3C2''    3    9   10
          180 deg rotation - cart. axis [0,1,0]                  
     i       13
          inversion                                              
     2S3     17   18
          inv.  60 deg rotation - cryst. axis [0,0,1]            
     2S6     19   20
          inv. 120 deg rotation - cryst. axis [0,0,1]            
     s_h     14
          inv. 180 deg rotation - cart. axis [0,0,1]             
     3s_d    16   24   23
          inv. 180 deg rotation - cart. axis [1,0,0]             
     3s_v    15   21   22
          inv. 180 deg rotation - cart. axis [0,1,0]             

   Cartesian axes

     site n.     atom                  positions (alat units)
         1           C   tau(   1) = (  -0.5000000   0.8660254   1.9498175  )
         2           C   tau(   2) = (   0.5000005   0.2886748   1.9498175  )
         3           C   tau(   3) = (  -0.5000000   0.8660254   0.6499392  )
         4           C   tau(   4) = (  -0.0000005   0.5773506   0.6499392  )

   Crystallographic axes

     site n.     atom                  positions (cryst. coord.)
         1           C   tau(   1) = (  0.0000000  1.0000000  0.7500000  )
         2           C   tau(   2) = (  0.6666670  0.3333330  0.7500000  )
         3           C   tau(   3) = (  0.0000000  1.0000000  0.2500000  )
         4           C   tau(   4) = (  0.3333330  0.6666670  0.2500000  )

     number of k points=     6  Marzari-Vanderbilt smearing, width (Ry)=  0.0200
                       cart. coord. in units 2pi/alat
        k(    1) = (   0.1250000   0.2165064   0.0961628), wk =   0.2500000
        k(    2) = (   0.1250000   0.5051815   0.0961628), wk =   0.5000000
        k(    3) = (   0.1250000  -0.3608439   0.0961628), wk =   0.5000000
        k(    4) = (   0.1250000  -0.0721688   0.0961628), wk =   0.2500000
        k(    5) = (   0.3750000   0.6495191   0.0961628), wk =   0.2500000
        k(    6) = (   0.3750000  -0.2165064   0.0961628), wk =   0.2500000

                       cryst. coord.
        k(    1) = (   0.1250000   0.1250000   0.2500000), wk =   0.2500000
        k(    2) = (   0.1250000   0.3750000   0.2500000), wk =   0.5000000
        k(    3) = (   0.1250000  -0.3750000   0.2500000), wk =   0.5000000
        k(    4) = (   0.1250000  -0.1250000   0.2500000), wk =   0.2500000
        k(    5) = (   0.3750000   0.3750000   0.2500000), wk =   0.2500000
        k(    6) = (   0.3750000  -0.3750000   0.2500000), wk =   0.2500000

     Dense  grid:    14339 G-vectors     FFT dimensions: (  24,  24,  60)

     Smooth grid:     5053 G-vectors     FFT dimensions: (  18,  18,  48)

     Dynamical RAM for                 wfc:       0.12 MB

     Dynamical RAM for     wfc (w. buffer):       0.81 MB

     Dynamical RAM for           str. fact:       0.22 MB

     Dynamical RAM for           local pot:       0.00 MB

     Dynamical RAM for          nlocal pot:       0.31 MB

     Dynamical RAM for                qrad:       0.71 MB

     Dynamical RAM for          rho,v,vnew:       1.45 MB

     Dynamical RAM for               rhoin:       0.48 MB

     Dynamical RAM for            rho*nmix:       3.50 MB

     Dynamical RAM for           G-vectors:       0.86 MB

     Dynamical RAM for          h,s,v(r/c):       0.03 MB

     Dynamical RAM for          <psi|beta>:       0.01 MB

     Dynamical RAM for                 psi:       0.23 MB

     Dynamical RAM for                hpsi:       0.23 MB

     Dynamical RAM for                spsi:       0.23 MB

     Dynamical RAM for      wfcinit/wfcrot:       0.31 MB

     Dynamical RAM for           addusdens:      10.28 MB

     Dynamical RAM for          addusforce:      11.71 MB

     Dynamical RAM for         addusstress:      10.94 MB

     Estimated static dynamical RAM per process >       6.59 MB

     Estimated max dynamical RAM per process >      21.80 MB

     Initial potential from superposition of free atoms

     starting charge      15.9998, renormalised to      16.0000
     Starting wfcs are   16 randomized atomic wfcs

     total cpu time spent up to now is        0.5 secs

     Self-consistent Calculation

     iteration #  1     ecut=    30.00 Ry     beta= 0.30
     Davidson diagonalization with overlap

---- Real-time Memory Report at c_bands before calling an iterative solver
            36 MiB given to the printing process from OS
             0 MiB allocation reported by mallinfo(arena+hblkhd)
           181 MiB available memory on the node where the printing process lives
------------------
     ethr =  1.00E-02,  avg # of iterations =  2.7

     total cpu time spent up to now is        0.6 secs

     WARNING: integrated charge=    16.00000257, expected=    16.00000000

     total energy              =     -45.61875570 Ry
     estimated scf accuracy    <       0.36365752 Ry

     iteration #  2     ecut=    30.00 Ry     beta= 0.30
     Davidson diagonalization with overlap

---- Real-time Memory Report at c_bands before calling an iterative solver
            38 MiB given to the printing process from OS
             0 MiB allocation reported by mallinfo(arena+hblkhd)
           170 MiB available memory on the node where the printing process lives
------------------
     ethr =  2.27E-03,  avg # of iterations =  1.0

     total cpu time spent up to now is        0.7 secs

     WARNING: integrated charge=    16.00000650, expected=    16.00000000

     total energy              =     -45.55177665 Ry
     estimated scf accuracy    <       0.13263855 Ry

     iteration #  3     ecut=    30.00 Ry     beta= 0.30
     Davidson diagonalization with overlap

---- Real-time Memory Report at c_bands before calling an iterative solver
            39 MiB given to the printing process from OS
             0 MiB allocation reported by mallinfo(arena+hblkhd)
           169 MiB available memory on the node where the printing process lives
------------------
     ethr =  8.29E-04,  avg # of iterations =  3.8

     total cpu time spent up to now is        0.9 secs

     WARNING: integrated charge=    16.00000606, expected=    16.00000000

     total energy              =     -45.57264657 Ry
     estimated scf accuracy    <       0.00243602 Ry

     iteration #  4     ecut=    30.00 Ry     beta= 0.30
     Davidson diagonalization with overlap

---- Real-time Memory Report at c_bands before calling an iterative solver
            39 MiB given to the printing process from OS
             0 MiB allocation reported by mallinfo(arena+hblkhd)
           169 MiB available memory on the node where the printing process lives
------------------
     ethr =  1.52E-05,  avg # of iterations =  4.8

     total cpu time spent up to now is        1.1 secs

     WARNING: integrated charge=    16.00000667, expected=    16.00000000

     total energy              =     -45.57209866 Ry
     estimated scf accuracy    <       0.00295471 Ry

     iteration #  5     ecut=    30.00 Ry     beta= 0.30
     Davidson diagonalization with overlap

---- Real-time Memory Report at c_bands before calling an iterative solver
            39 MiB given to the printing process from OS
             0 MiB allocation reported by mallinfo(arena+hblkhd)
           169 MiB available memory on the node where the printing process lives
------------------
     ethr =  1.52E-05,  avg # of iterations =  2.0

     total cpu time spent up to now is        1.2 secs

     WARNING: integrated charge=    16.00000667, expected=    16.00000000

     total energy              =     -45.57252763 Ry
     estimated scf accuracy    <       0.00000422 Ry

     iteration #  6     ecut=    30.00 Ry     beta= 0.30
     Davidson diagonalization with overlap

---- Real-time Memory Report at c_bands before calling an iterative solver
            39 MiB given to the printing process from OS
             0 MiB allocation reported by mallinfo(arena+hblkhd)
           169 MiB available memory on the node where the printing process lives
------------------
     c_bands:  1 eigenvalues not converged
     ethr =  2.64E-08,  avg # of iterations =  7.0

     total cpu time spent up to now is        1.4 secs

     WARNING: integrated charge=    16.00000669, expected=    16.00000000

     total energy              =     -45.57252936 Ry
     estimated scf accuracy    <       0.00000254 Ry

     iteration #  7     ecut=    30.00 Ry     beta= 0.30
     Davidson diagonalization with overlap

---- Real-time Memory Report at c_bands before calling an iterative solver
            40 MiB given to the printing process from OS
             0 MiB allocation reported by mallinfo(arena+hblkhd)
           169 MiB available memory on the node where the printing process lives
------------------
     c_bands:  1 eigenvalues not converged
     ethr =  1.59E-08,  avg # of iterations =  5.0

     total cpu time spent up to now is        1.6 secs

     WARNING: integrated charge=    16.00000670, expected=    16.00000000

     total energy              =     -45.57252994 Ry
     estimated scf accuracy    <       0.00000005 Ry

     iteration #  8     ecut=    30.00 Ry     beta= 0.30
     Davidson diagonalization with overlap

---- Real-time Memory Report at c_bands before calling an iterative solver
            40 MiB given to the printing process from OS
             0 MiB allocation reported by mallinfo(arena+hblkhd)
           169 MiB available memory on the node where the printing process lives
------------------
     ethr =  3.35E-10,  avg # of iterations =  2.0

     total cpu time spent up to now is        1.8 secs

     WARNING: integrated charge=    16.00000670, expected=    16.00000000

     total energy              =     -45.57253003 Ry
     estimated scf accuracy    <       0.00000002 Ry

     iteration #  9     ecut=    30.00 Ry     beta= 0.30
     Davidson diagonalization with overlap

---- Real-time Memory Report at c_bands before calling an iterative solver
            40 MiB given to the printing process from OS
             0 MiB allocation reported by mallinfo(arena+hblkhd)
           168 MiB available memory on the node where the printing process lives
------------------
     ethr =  1.10E-10,  avg # of iterations =  1.0

     total cpu time spent up to now is        1.9 secs

     WARNING: integrated charge=    16.00000670, expected=    16.00000000

     total energy              =     -45.57253006 Ry
     estimated scf accuracy    <          7.9E-09 Ry

     iteration # 10     ecut=    30.00 Ry     beta= 0.30
     Davidson diagonalization with overlap

---- Real-time Memory Report at c_bands before calling an iterative solver
            40 MiB given to the printing process from OS
             0 MiB allocation reported by mallinfo(arena+hblkhd)
           168 MiB available memory on the node where the printing process lives
------------------
     ethr =  4.96E-11,  avg # of iterations =  2.0

     total cpu time spent up to now is        2.0 secs

     End of self-consistent calculation

          k = 0.1250 0.2165 0.0962 (   626 PWs)   bands (ev):

   -11.0014 -10.7214   0.4350   1.2761   1.3231   2.0728   2.3541   2.3872
    14.3562  15.4829  15.8579  16.6419

     occupation numbers 
     1.0000   1.0000   1.0000   1.0000   1.0000   1.0000   1.0000   1.0000
     0.0000   0.0000   0.0000   0.0000

          k = 0.1250 0.5052 0.0962 (   635 PWs)   bands (ev):

    -7.4637  -7.2506  -4.5503  -4.3875   0.0511   0.1365   4.4040   5.4742
     9.4207  10.1295  16.2659  16.6790

     occupation numbers 
     1.0000   1.0000   1.0000   1.0000   1.0000   1.0000   1.0000   1.0000
     0.0000   0.0000   0.0000   0.0000

          k = 0.1250-0.3608 0.0962 (   638 PWs)   bands (ev):

    -9.5484  -9.2933  -1.5354  -1.4210   0.8225   0.8942   2.1481   3.6490
    12.3795  12.9928  15.9849  16.6503

     occupation numbers 
     1.0000   1.0000   1.0000   1.0000   1.0000   1.0000   1.0000   1.0000
     0.0000   0.0000   0.0000   0.0000

          k = 0.1250-0.0722 0.0962 (   616 PWs)   bands (ev):

   -11.7394 -11.4467  -0.4507   1.2404   3.0686   3.1201   3.7487   3.7869
    13.5116  15.8212  15.9640  17.2803

     occupation numbers 
     1.0000   1.0000   1.0000   1.0000   1.0000   1.0000   1.0000   1.0000
     0.0000   0.0000   0.0000   0.0000

          k = 0.3750 0.6495 0.0962 (   638 PWs)   bands (ev):

    -5.8379  -5.7326  -4.9231  -4.8786  -2.2601  -2.1546   6.1028   6.7066
     8.4518   8.6140  18.2612  18.4100

     occupation numbers 
     1.0000   1.0000   1.0000   1.0000   1.0000   1.0000   1.0000   1.0000
     0.0000   0.0000   0.0000   0.0000

          k = 0.3750-0.2165 0.0962 (   632 PWs)   bands (ev):

    -8.8352  -8.5926  -3.2428  -3.0891   1.4321   1.4903   2.9374   4.3183
    10.8675  11.7511  14.9205  15.2601

     occupation numbers 
     1.0000   1.0000   1.0000   1.0000   1.0000   1.0000   1.0000   1.0000
     0.0000   0.0000   0.0000   0.0000

     the Fermi energy is     7.7612 ev

     WARNING: integrated charge=    16.00000670, expected=    16.00000000

!    total energy              =     -45.57253010 Ry
     estimated scf accuracy    <          7.7E-11 Ry
     smearing contrib. (-TS)   =       0.00000010 Ry
     internal energy E=F+TS    =     -45.57253020 Ry

     The total energy is F=E-TS. E is the sum of the following terms:
     one-electron contribution =      -7.69697756 Ry
     hartree contribution      =      12.04985317 Ry
     xc contribution           =     -14.04941024 Ry
     ewald contribution        =     -35.87599557 Ry

     convergence has been achieved in  10 iterations

     Forces acting on atoms (cartesian axes, Ry/au):

     atom    1 type  1   force =     0.00000000   -0.00000000    0.00000000
     atom    2 type  1   force =     0.00000000    0.00000000    0.00000000
     atom    3 type  1   force =    -0.00000000    0.00000000    0.00000000
     atom    4 type  1   force =     0.00000000    0.00000000    0.00000000
     The non-local contrib.  to forces
     atom    1 type  1   force =    -0.00000000   -0.00000000    0.00000000
     atom    2 type  1   force =    -0.00000000   -0.00000000    0.00000000
     atom    3 type  1   force =     0.00000000    0.00000000    0.00000000
     atom    4 type  1   force =     0.00000000    0.00000000    0.00000000
     The ionic contribution  to forces
     atom    1 type  1   force =     0.00000852   -0.00000492    0.00000000
     atom    2 type  1   force =    -0.00000856    0.00000494    0.00000000
     atom    3 type  1   force =    -0.00000852    0.00000492    0.00000000
     atom    4 type  1   force =     0.00000856   -0.00000494    0.00000000
     The local contribution  to forces
     atom    1 type  1   force =    -0.00000000    0.00000000    0.00000000
     atom    2 type  1   force =    -0.00000803    0.00000463    0.00000000
     atom    3 type  1   force =    -0.00000000   -0.00000000    0.00000000
     atom    4 type  1   force =     0.00000803   -0.00000463    0.00000000
     The core correction contribution to forces
     atom    1 type  1   force =     0.00000000    0.00000000    0.00000000
     atom    2 type  1   force =     0.00000000    0.00000000    0.00000000
     atom    3 type  1   force =     0.00000000    0.00000000    0.00000000
     atom    4 type  1   force =     0.00000000    0.00000000    0.00000000
     The Hubbard contrib.    to forces
     atom    1 type  1   force =     0.00000000    0.00000000    0.00000000
     atom    2 type  1   force =     0.00000000    0.00000000    0.00000000
     atom    3 type  1   force =     0.00000000    0.00000000    0.00000000
     atom    4 type  1   force =     0.00000000    0.00000000    0.00000000
     The SCF correction term to forces
     atom    1 type  1   force =    -0.00000000    0.00000000    0.00000000
     atom    2 type  1   force =     0.00000000   -0.00000000    0.00000000
     atom    3 type  1   force =     0.00000000   -0.00000000    0.00000000
     atom    4 type  1   force =    -0.00000000    0.00000000   -0.00000000

     Total force =     0.000000     Total SCF correction =     0.000000


     Computing stress (Cartesian axis) and pressure

          total   stress  (Ry/bohr**3)                   (kbar)     P=        3.65
  -0.00013927   0.00000000  -0.00000000          -20.49        0.00       -0.00
   0.00000000  -0.00013927   0.00000000            0.00      -20.49        0.00
  -0.00000000   0.00000000   0.00035299           -0.00        0.00       51.93

     kinetic stress (kbar)  11017.08      0.00     -0.00
                                0.00  11017.08     -0.00
                               -0.00     -0.00  12794.70

     local   stress (kbar) -16862.74      0.01     -0.00
                                0.01 -16862.72     -0.00
                               -0.00     -0.00  24154.21

     nonloc. stress (kbar)   -466.71     -0.00      0.00
                               -0.00   -466.71      0.00
                                0.00      0.00   -468.38

     hartree stress (kbar)   6715.24     -0.00      0.00
                               -0.00   6715.24      0.00
                                0.00      0.00  -5650.66

     exc-cor stress (kbar)  -2789.17     -0.00      0.00
                               -0.00  -2789.17      0.00
                                0.00      0.00  -2883.49

     corecor stress (kbar)      0.00      0.00      0.00
                                0.00      0.00      0.00
                                0.00      0.00      0.00

     ewald   stress (kbar)   2365.81     -0.03     -0.00
                               -0.03   2365.78     -0.00
                               -0.00     -0.00 -27894.47

     hubbard stress (kbar)      0.00      0.00      0.00
                                0.00      0.00      0.00
                                0.00      0.00      0.00

     DFT-D   stress (kbar)      0.00      0.00      0.00
                                0.00      0.00      0.00
                                0.00      0.00      0.00

     XDM     stress (kbar)      0.00      0.00      0.00
                                0.00      0.00      0.00
                                0.00      0.00      0.00

     dft-nl  stress (kbar)      0.00      0.00      0.00
                                0.00      0.00      0.00
                                0.00      0.00      0.00

     TS-vdW  stress (kbar)      0.00      0.00      0.00
                                0.00      0.00      0.00
                                0.00      0.00      0.00


                                0.00      0.00      0.00
                                0.00      0.00      0.00


                                0.00      0.00      0.00


     BFGS Geometry Optimization
     Energy error            =      0.0E+00 Ry
     Gradient error          =      4.9E-22 Ry/Bohr
     Cell gradient error     =      5.2E+01 kbar

     number of scf cycles    =   1
     number of bfgs steps    =   0

     enthalpy           new  =     -45.5725301026 Ry

     new trust radius        =       0.0266407849 bohr
     new conv_thr            =       0.0000000010 Ry

     new unit-cell volume =    228.25765 a.u.^3 (    33.82429 Ang^3 )
     density =      2.35863 g/cm^3

CELL_PARAMETERS (alat=  4.66006462)
   0.996518244   0.000000000  -0.000000000
  -0.498259122   0.863010114   0.000000000
  -0.000000000   0.000000000   2.622698631

ATOMIC_POSITIONS (crystal)
C             0.0000000000        1.0000000000        0.7500000000
C             0.6666670000        0.3333330000        0.7500000000
C             0.0000000000        1.0000000000        0.2500000000
C             0.3333330000        0.6666670000        0.2500000000



     Writing config-only to output data dir ././graphite_pbe.save/
     NEW-OLD atomic charge density approx. for the potential
     extrapolated charge   16.02894, renormalised to   16.00000

     total cpu time spent up to now is        2.7 secs

     Self-consistent Calculation

     iteration #  1     ecut=    30.00 Ry     beta= 0.30
     Davidson diagonalization with overlap

---- Real-time Memory Report at c_bands before calling an iterative solver
            40 MiB given to the printing process from OS
             0 MiB allocation reported by mallinfo(arena+hblkhd)
           167 MiB available memory on the node where the printing process lives
------------------
     ethr =  1.00E-06,  avg # of iterations =  4.0

     total cpu time spent up to now is        3.0 secs

     total energy              =     -45.57317539 Ry
     estimated scf accuracy    <       0.00003024 Ry

     iteration #  2     ecut=    30.00 Ry     beta= 0.30
     Davidson diagonalization with overlap

---- Real-time Memory Report at c_bands before calling an iterative solver
            40 MiB given to the printing process from OS
             0 MiB allocation reported by mallinfo(arena+hblkhd)
           167 MiB available memory on the node where the printing process lives
------------------
     ethr =  1.89E-07,  avg # of iterations =  2.0

     total cpu time spent up to now is        3.1 secs

     total energy              =     -45.57319807 Ry
     estimated scf accuracy    <       0.00004325 Ry

     iteration #  3     ecut=    30.00 Ry     beta= 0.30
     Davidson diagonalization with overlap

---- Real-time Memory Report at c_bands before calling an iterative solver
            40 MiB given to the printing process from OS
             0 MiB allocation reported by mallinfo(arena+hblkhd)
           167 MiB available memory on the node where the printing process lives
------------------
     ethr =  1.89E-07,  avg # of iterations =  1.0

     total cpu time spent up to now is        3.2 secs

     WARNING: integrated charge=    16.00000486, expected=    16.00000000

     total energy              =     -45.57317040 Ry
     estimated scf accuracy    <       0.00005261 Ry

     iteration #  4     ecut=    30.00 Ry     beta= 0.30
     Davidson diagonalization with overlap

---- Real-time Memory Report at c_bands before calling an iterative solver
            40 MiB given to the printing process from OS
             0 MiB allocation reported by mallinfo(arena+hblkhd)
           167 MiB available memory on the node where the printing process lives
------------------
     ethr =  1.89E-07,  avg # of iterations =  2.0

     total cpu time spent up to now is        3.4 secs

     WARNING: integrated charge=    16.00000492, expected=    16.00000000

     total energy              =     -45.57317976 Ry
     estimated scf accuracy    <       0.00000123 Ry

     iteration #  5     ecut=    30.00 Ry     beta= 0.30
     Davidson diagonalization with overlap

---- Real-time Memory Report at c_bands before calling an iterative solver
            40 MiB given to the printing process from OS
             0 MiB allocation reported by mallinfo(arena+hblkhd)
           167 MiB available memory on the node where the printing process lives
------------------
     ethr =  7.66E-09,  avg # of iterations =  1.0

     total cpu time spent up to now is        3.5 secs

     WARNING: integrated charge=    16.00000507, expected=    16.00000000

     total energy              =     -45.57317934 Ry
     estimated scf accuracy    <       0.00000105 Ry

     iteration #  6     ecut=    30.00 Ry     beta= 0.30
     Davidson diagonalization with overlap

---- Real-time Memory Report at c_bands before calling an iterative solver
            40 MiB given to the printing process from OS
             0 MiB allocation reported by mallinfo(arena+hblkhd)
           167 MiB available memory on the node where the printing process lives
------------------
     ethr =  6.54E-09,  avg # of iterations =  1.0

     total cpu time spent up to now is        3.6 secs

     WARNING: integrated charge=    16.00000509, expected=    16.00000000

     total energy              =     -45.57317944 Ry
     estimated scf accuracy    <       0.00000013 Ry

     iteration #  7     ecut=    30.00 Ry     beta= 0.30
     Davidson diagonalization with overlap

---- Real-time Memory Report at c_bands before calling an iterative solver
            40 MiB given to the printing process from OS
             0 MiB allocation reported by mallinfo(arena+hblkhd)
           167 MiB available memory on the node where the printing process lives
------------------
     ethr =  8.35E-10,  avg # of iterations =  1.0

     total cpu time spent up to now is        3.8 secs

     WARNING: integrated charge=    16.00000510, expected=    16.00000000

     total energy              =     -45.57317935 Ry
     estimated scf accuracy    <       0.00000017 Ry

     iteration #  8     ecut=    30.00 Ry     beta= 0.30
     Davidson diagonalization with overlap

---- Real-time Memory Report at c_bands before calling an iterative solver
            40 MiB given to the printing process from OS
             0 MiB allocation reported by mallinfo(arena+hblkhd)
           167 MiB available memory on the node where the printing process lives
------------------
     ethr =  8.35E-10,  avg # of iterations =  2.0

     total cpu time spent up to now is        3.9 secs

     WARNING: integrated charge=    16.00000510, expected=    16.00000000

     total energy              =     -45.57317937 Ry
     estimated scf accuracy    <          1.0E-09 Ry

     iteration #  9     ecut=    30.00 Ry     beta= 0.30
     Davidson diagonalization with overlap

---- Real-time Memory Report at c_bands before calling an iterative solver
            40 MiB given to the printing process from OS
             0 MiB allocation reported by mallinfo(arena+hblkhd)
           167 MiB available memory on the node where the printing process lives
------------------
     ethr =  6.35E-12,  avg # of iterations =  2.2

     total cpu time spent up to now is        4.1 secs

     WARNING: integrated charge=    16.00000510, expected=    16.00000000

     total energy              =     -45.57317937 Ry
     estimated scf accuracy    <          2.0E-09 Ry

     iteration # 10     ecut=    30.00 Ry     beta= 0.30
     Davidson diagonalization with overlap

---- Real-time Memory Report at c_bands before calling an iterative solver
            40 MiB given to the printing process from OS
             0 MiB allocation reported by mallinfo(arena+hblkhd)
           167 MiB available memory on the node where the printing process lives
------------------
     ethr =  6.35E-12,  avg # of iterations =  2.0

     total cpu time spent up to now is        4.2 secs

     End of self-consistent calculation

          k = 0.1254 0.2173 0.0953 (   626 PWs)   bands (ev):

   -11.0905 -10.8295   0.3866   1.2473   1.2901   1.9521   2.3144   2.3446
    14.1995  15.5596  15.9131  16.6945

     occupation numbers 
     1.0000   1.0000   1.0000   1.0000   1.0000   1.0000   1.0000   1.0000
     0.0000   0.0000   0.0000   0.0000

          k = 0.1254 0.5069 0.0953 (   635 PWs)   bands (ev):

    -7.5299  -7.3316  -4.6130  -4.4618  -0.0025   0.0756   4.3844   5.4072
     9.4243  10.1072  16.3637  16.7541

     occupation numbers 
     1.0000   1.0000   1.0000   1.0000   1.0000   1.0000   1.0000   1.0000
     0.0000   0.0000   0.0000   0.0000

          k = 0.1254-0.3621 0.0953 (   638 PWs)   bands (ev):

    -9.6291  -9.3916  -1.5776  -1.4720   0.7730   0.8387   2.1128   3.5472
    12.4228  13.0077  15.8660  16.7348

     occupation numbers 
     1.0000   1.0000   1.0000   1.0000   1.0000   1.0000   1.0000   1.0000
     0.0000   0.0000   0.0000   0.0000

          k = 0.1254-0.0724 0.0953 (   616 PWs)   bands (ev):

   -11.8326 -11.5596  -0.5061   1.1107   3.0459   3.0928   3.7235   3.7581
    13.3410  15.8762  16.0122  17.3424

     occupation numbers 
     1.0000   1.0000   1.0000   1.0000   1.0000   1.0000   1.0000   1.0000
     0.0000   0.0000   0.0000   0.0000

          k = 0.3763 0.6518 0.0953 (   638 PWs)   bands (ev):

    -5.8884  -5.7910  -4.9928  -4.9501  -2.3356  -2.2371   6.0956   6.6709
     8.4394   8.5841  18.2609  18.4154

     occupation numbers 
     1.0000   1.0000   1.0000   1.0000   1.0000   1.0000   1.0000   1.0000
     0.0000   0.0000   0.0000   0.0000

          k = 0.3763-0.2173 0.0953 (   632 PWs)   bands (ev):

    -8.9112  -8.6856  -3.2966  -3.1546   1.3858   1.4386   2.9079   4.2275
    10.8934  11.7403  15.0090  15.3230

     occupation numbers 
     1.0000   1.0000   1.0000   1.0000   1.0000   1.0000   1.0000   1.0000
     0.0000   0.0000   0.0000   0.0000

     the Fermi energy is     7.7373 ev

     WARNING: integrated charge=    16.00000510, expected=    16.00000000

!    total energy              =     -45.57317937 Ry
     estimated scf accuracy    <          5.2E-11 Ry
     smearing contrib. (-TS)   =       0.00000008 Ry
     internal energy E=F+TS    =     -45.57317945 Ry

     The total energy is F=E-TS. E is the sum of the following terms:
     one-electron contribution =      -8.42600293 Ry
     hartree contribution      =      12.39637648 Ry
     xc contribution           =     -14.07760281 Ry
     ewald contribution        =     -35.46595018 Ry

     convergence has been achieved in  10 iterations

     Forces acting on atoms (cartesian axes, Ry/au):

     atom    1 type  1   force =    -0.00000000    0.00000000   -0.00000000
     atom    2 type  1   force =     0.00000000   -0.00000000   -0.00000000
     atom    3 type  1   force =     0.00000000    0.00000000   -0.00000000
     atom    4 type  1   force =    -0.00000000    0.00000000   -0.00000000
     The non-local contrib.  to forces
     atom    1 type  1   force =     0.00000000    0.00000000   -0.00000000
     atom    2 type  1   force =     0.00000000    0.00000000    0.00000000
     atom    3 type  1   force =     0.00000000    0.00000000   -0.00000000
     atom    4 type  1   force =    -0.00000000   -0.00000000   -0.00000000
     The ionic contribution  to forces
     atom    1 type  1   force =     0.00000858   -0.00000495   -0.00000000
     atom    2 type  1   force =    -0.00000861    0.00000497   -0.00000000
     atom    3 type  1   force =    -0.00000858    0.00000495   -0.00000000
     atom    4 type  1   force =     0.00000861   -0.00000497   -0.00000000
     The local contribution  to forces
     atom    1 type  1   force =    -0.00000000    0.00000000    0.00000000
     atom    2 type  1   force =    -0.00000798    0.00000461    0.00000000
     atom    3 type  1   force =    -0.00000000   -0.00000000    0.00000000
     atom    4 type  1   force =     0.00000798   -0.00000461    0.00000000
     The core correction contribution to forces
     atom    1 type  1   force =     0.00000000    0.00000000    0.00000000
     atom    2 type  1   force =     0.00000000    0.00000000    0.00000000
     atom    3 type  1   force =     0.00000000    0.00000000    0.00000000
     atom    4 type  1   force =     0.00000000    0.00000000    0.00000000
     The Hubbard contrib.    to forces
     atom    1 type  1   force =     0.00000000    0.00000000    0.00000000
     atom    2 type  1   force =     0.00000000    0.00000000    0.00000000
     atom    3 type  1   force =     0.00000000    0.00000000    0.00000000
     atom    4 type  1   force =     0.00000000    0.00000000    0.00000000
     The SCF correction term to forces
     atom    1 type  1   force =    -0.00000000    0.00000000   -0.00000000
     atom    2 type  1   force =    -0.00000000    0.00000000    0.00000000
     atom    3 type  1   force =     0.00000000   -0.00000000   -0.00000000
     atom    4 type  1   force =     0.00000000   -0.00000000   -0.00000000

     Total force =     0.000000     Total SCF correction =     0.000000


     Computing stress (Cartesian axis) and pressure

          total   stress  (Ry/bohr**3)                   (kbar)     P=       32.00
   0.00016787   0.00000000  -0.00000000           24.69        0.00       -0.00
   0.00000000   0.00016787   0.00000000            0.00       24.69        0.00
   0.00000000  -0.00000000   0.00031694            0.00       -0.00       46.62

     kinetic stress (kbar)  11041.22     -0.00      0.00
                               -0.00  11041.22      0.00
                                0.00     -0.00  12794.56

     local   stress (kbar) -17398.67      0.01      0.00
                                0.01 -17398.66      0.00
                                0.00      0.00  24771.74

     nonloc. stress (kbar)   -474.79     -0.00     -0.00
                               -0.00   -474.79      0.00
                               -0.00      0.00   -474.07

     hartree stress (kbar)   6932.85     -0.00     -0.00
                               -0.00   6932.85     -0.00
                               -0.00     -0.00  -5876.62

     exc-cor stress (kbar)  -2789.63     -0.00     -0.00
                               -0.00  -2789.63      0.00
                               -0.00      0.00  -2884.84

     corecor stress (kbar)      0.00      0.00      0.00
                                0.00      0.00      0.00
                                0.00      0.00      0.00

     ewald   stress (kbar)   2713.73     -0.03     -0.00
                               -0.03   2713.70     -0.00
                               -0.00     -0.00 -28284.15

     hubbard stress (kbar)      0.00      0.00      0.00
                                0.00      0.00      0.00
                                0.00      0.00      0.00

     DFT-D   stress (kbar)      0.00      0.00      0.00
                                0.00      0.00      0.00
                                0.00      0.00      0.00

     XDM     stress (kbar)      0.00      0.00      0.00
                                0.00      0.00      0.00
                                0.00      0.00      0.00

     dft-nl  stress (kbar)      0.00      0.00      0.00
                                0.00      0.00      0.00
                                0.00      0.00      0.00

     TS-vdW  stress (kbar)      0.00      0.00      0.00
                                0.00      0.00      0.00
                                0.00      0.00      0.00


                                0.00      0.00      0.00
                                0.00      0.00      0.00


                                0.00      0.00      0.00

     Energy error            =      6.5E-04 Ry
     Gradient error          =      4.9E-22 Ry/Bohr
     Cell gradient error     =      4.7E+01 kbar

     number of scf cycles    =   2
     number of bfgs steps    =   1

     enthalpy           old  =     -45.5725301026 Ry
     enthalpy           new  =     -45.5731793729 Ry

     CASE: enthalpy          _new < enthalpy          _old

     new trust radius        =       0.0792949779 bohr
     new conv_thr            =            1.0E-11 Ry

     new unit-cell volume =    234.01153 a.u.^3 (    34.67693 Ang^3 )
     density =      2.30063 g/cm^3

CELL_PARAMETERS (alat=  4.66006462)
   0.996015828   0.000000000  -0.000000000
  -0.498007914   0.862575010   0.000000000
  -0.000000000   0.000000000   2.691524453

ATOMIC_POSITIONS (crystal)
C             0.0000000000        1.0000000000        0.7500000000
C             0.6666670000        0.3333330000        0.7500000000
C             0.0000000000        1.0000000000        0.2500000000
C             0.3333330000        0.6666670000        0.2500000000



     Writing config-only to output data dir ././graphite_pbe.save/
     NEW-OLD atomic charge density approx. for the potential
     extrapolated charge   16.39341, renormalised to   16.00000

     total cpu time spent up to now is        4.9 secs

     Self-consistent Calculation

     iteration #  1     ecut=    30.00 Ry     beta= 0.30
     Davidson diagonalization with overlap

---- Real-time Memory Report at c_bands before calling an iterative solver
            41 MiB given to the printing process from OS
             0 MiB allocation reported by mallinfo(arena+hblkhd)
           167 MiB available memory on the node where the printing process lives
------------------
     ethr =  1.00E-06,  avg # of iterations =  8.3

     total cpu time spent up to now is        5.1 secs

     total energy              =     -45.56936726 Ry
     estimated scf accuracy    <       0.00214448 Ry

     iteration #  2     ecut=    30.00 Ry     beta= 0.30
     Davidson diagonalization with overlap

---- Real-time Memory Report at c_bands before calling an iterative solver
            41 MiB given to the printing process from OS
             0 MiB allocation reported by mallinfo(arena+hblkhd)
           167 MiB available memory on the node where the printing process lives
------------------
     ethr =  1.34E-05,  avg # of iterations =  4.7

     total cpu time spent up to now is        5.3 secs

     WARNING: integrated charge=    16.00000165, expected=    16.00000000

     total energy              =     -45.57502906 Ry
     estimated scf accuracy    <       0.00116550 Ry

     iteration #  3     ecut=    30.00 Ry     beta= 0.30
     Davidson diagonalization with overlap

---- Real-time Memory Report at c_bands before calling an iterative solver
            41 MiB given to the printing process from OS
             0 MiB allocation reported by mallinfo(arena+hblkhd)
           167 MiB available memory on the node where the printing process lives
------------------
     ethr =  7.28E-06,  avg # of iterations =  1.0

     total cpu time spent up to now is        5.4 secs

     WARNING: integrated charge=    16.00000390, expected=    16.00000000

     total energy              =     -45.57458391 Ry
     estimated scf accuracy    <       0.00069344 Ry

     iteration #  4     ecut=    30.00 Ry     beta= 0.30
     Davidson diagonalization with overlap

---- Real-time Memory Report at c_bands before calling an iterative solver
            41 MiB given to the printing process from OS
             0 MiB allocation reported by mallinfo(arena+hblkhd)
           167 MiB available memory on the node where the printing process lives
------------------
     ethr =  4.33E-06,  avg # of iterations =  2.0

     total cpu time spent up to now is        5.6 secs

     WARNING: integrated charge=    16.00000385, expected=    16.00000000

     total energy              =     -45.57473844 Ry
     estimated scf accuracy    <       0.00007420 Ry

     iteration #  5     ecut=    30.00 Ry     beta= 0.30
     Davidson diagonalization with overlap

---- Real-time Memory Report at c_bands before calling an iterative solver
            41 MiB given to the printing process from OS
             0 MiB allocation reported by mallinfo(arena+hblkhd)
           167 MiB available memory on the node where the printing process lives
------------------
     ethr =  4.64E-07,  avg # of iterations =  1.7

     total cpu time spent up to now is        5.7 secs

     WARNING: integrated charge=    16.00000399, expected=    16.00000000

     total energy              =     -45.57472888 Ry
     estimated scf accuracy    <       0.00001947 Ry

     iteration #  6     ecut=    30.00 Ry     beta= 0.30
     Davidson diagonalization with overlap

---- Real-time Memory Report at c_bands before calling an iterative solver
            41 MiB given to the printing process from OS
             0 MiB allocation reported by mallinfo(arena+hblkhd)
           167 MiB available memory on the node where the printing process lives
------------------
     ethr =  1.22E-07,  avg # of iterations =  2.0

     total cpu time spent up to now is        5.9 secs

     WARNING: integrated charge=    16.00000401, expected=    16.00000000

     total energy              =     -45.57473218 Ry
     estimated scf accuracy    <       0.00000006 Ry

     iteration #  7     ecut=    30.00 Ry     beta= 0.30
     Davidson diagonalization with overlap

---- Real-time Memory Report at c_bands before calling an iterative solver
            41 MiB given to the printing process from OS
             0 MiB allocation reported by mallinfo(arena+hblkhd)
           167 MiB available memory on the node where the printing process lives
------------------
     ethr =  3.60E-10,  avg # of iterations =  2.2

     total cpu time spent up to now is        6.0 secs

     WARNING: integrated charge=    16.00000401, expected=    16.00000000

     total energy              =     -45.57473214 Ry
     estimated scf accuracy    <       0.00000018 Ry

     iteration #  8     ecut=    30.00 Ry     beta= 0.30
     Davidson diagonalization with overlap

---- Real-time Memory Report at c_bands before calling an iterative solver
            41 MiB given to the printing process from OS
             0 MiB allocation reported by mallinfo(arena+hblkhd)
           167 MiB available memory on the node where the printing process lives
------------------
     ethr =  3.60E-10,  avg # of iterations =  2.0

     total cpu time spent up to now is        6.2 secs

     WARNING: integrated charge=    16.00000400, expected=    16.00000000

     total energy              =     -45.57473218 Ry
     estimated scf accuracy    <       0.00000002 Ry

     iteration #  9     ecut=    30.00 Ry     beta= 0.30
     Davidson diagonalization with overlap

---- Real-time Memory Report at c_bands before calling an iterative solver
            41 MiB given to the printing process from OS
             0 MiB allocation reported by mallinfo(arena+hblkhd)
           167 MiB available memory on the node where the printing process lives
------------------
     ethr =  1.03E-10,  avg # of iterations =  2.0

     total cpu time spent up to now is        6.3 secs

     WARNING: integrated charge=    16.00000401, expected=    16.00000000

     total energy              =     -45.57473218 Ry
     estimated scf accuracy    <          2.3E-09 Ry

     iteration # 10     ecut=    30.00 Ry     beta= 0.30
     Davidson diagonalization with overlap

---- Real-time Memory Report at c_bands before calling an iterative solver
            41 MiB given to the printing process from OS
             0 MiB allocation reported by mallinfo(arena+hblkhd)
           167 MiB available memory on the node where the printing process lives
------------------
     ethr =  1.41E-11,  avg # of iterations =  1.8

     total cpu time spent up to now is        6.4 secs

     WARNING: integrated charge=    16.00000401, expected=    16.00000000

     total energy              =     -45.57473218 Ry
     estimated scf accuracy    <          6.6E-11 Ry

     iteration # 11     ecut=    30.00 Ry     beta= 0.30
     Davidson diagonalization with overlap

---- Real-time Memory Report at c_bands before calling an iterative solver
            41 MiB given to the printing process from OS
             0 MiB allocation reported by mallinfo(arena+hblkhd)
           167 MiB available memory on the node where the printing process lives
------------------
     ethr =  4.14E-13,  avg # of iterations =  2.0

     total cpu time spent up to now is        6.6 secs

     End of self-consistent calculation

          k = 0.1255 0.2174 0.0929 (   626 PWs)   bands (ev):

   -11.3647 -11.1504   0.1775   0.9619   0.9956   1.5550   2.0255   2.0492
    13.6260  15.3234  15.6225  16.4119

     occupation numbers 
     1.0000   1.0000   1.0000   1.0000   1.0000   1.0000   1.0000   1.0000
     0.0000   0.0000   0.0000   0.0000

          k = 0.1255 0.5072 0.0929 (   635 PWs)   bands (ev):

    -7.8061  -7.6446  -4.8931  -4.7707  -0.2883  -0.2263   4.1629   5.0588
     9.1748   9.7780  16.1241  16.4536

     occupation numbers 
     1.0000   1.0000   1.0000   1.0000   1.0000   1.0000   1.0000   1.0000
     0.0000   0.0000   0.0000   0.0000

          k = 0.1255-0.3623 0.0929 (   638 PWs)   bands (ev):

    -9.9040  -9.7097  -1.8590  -1.7743   0.4865   0.5385   1.9019   3.1617
    12.1892  12.6947  15.3384  16.4816

     occupation numbers 
     1.0000   1.0000   1.0000   1.0000   1.0000   1.0000   1.0000   1.0000
     0.0000   0.0000   0.0000   0.0000

          k = 0.1255-0.0725 0.0929 (   616 PWs)   bands (ev):

   -12.1064 -11.8819  -0.7148   0.7089   2.7613   2.7981   3.4372   3.4641
    12.7497  15.6046  15.7237  17.0269

     occupation numbers 
     1.0000   1.0000   1.0000   1.0000   1.0000   1.0000   1.0000   1.0000
     0.0000   0.0000   0.0000   0.0000

          k = 0.3765 0.6521 0.0929 (   638 PWs)   bands (ev):

    -6.1695  -6.0907  -5.2854  -5.2504  -2.6225  -2.5432   5.8659   6.3673
     8.1573   8.2673  17.9753  18.1068

     occupation numbers 
     1.0000   1.0000   1.0000   1.0000   1.0000   1.0000   1.0000   1.0000
     0.0000   0.0000   0.0000   0.0000

          k = 0.3765-0.2174 0.0929 (   632 PWs)   bands (ev):

    -9.1865  -9.0022  -3.5763  -3.4617   1.0985   1.1397   2.6943   3.8521
    10.6642  11.4044  14.7637  15.0186

     occupation numbers 
     1.0000   1.0000   1.0000   1.0000   1.0000   1.0000   1.0000   1.0000
     0.0000   0.0000   0.0000   0.0000

     the Fermi energy is     7.4439 ev

     WARNING: integrated charge=    16.00000401, expected=    16.00000000

!    total energy              =     -45.57473218 Ry
     estimated scf accuracy    <          1.9E-13 Ry
     smearing contrib. (-TS)   =       0.00000006 Ry
     internal energy E=F+TS    =     -45.57473224 Ry

     The total energy is F=E-TS. E is the sum of the following terms:
     one-electron contribution =     -10.39725558 Ry
     hartree contribution      =      13.20916530 Ry
     xc contribution           =     -14.07773723 Ry
     ewald contribution        =     -34.30890473 Ry

     convergence has been achieved in  11 iterations

     Forces acting on atoms (cartesian axes, Ry/au):

     atom    1 type  1   force =     0.00000000   -0.00000000    0.00000000
     atom    2 type  1   force =     0.00000000    0.00000000    0.00000000
     atom    3 type  1   force =    -0.00000000    0.00000000   -0.00000000
     atom    4 type  1   force =    -0.00000000    0.00000000   -0.00000000
     The non-local contrib.  to forces
     atom    1 type  1   force =     0.00000000    0.00000000    0.00000000
     atom    2 type  1   force =     0.00000000    0.00000000    0.00000000
     atom    3 type  1   force =    -0.00000000   -0.00000000   -0.00000000
     atom    4 type  1   force =    -0.00000000   -0.00000000   -0.00000000
     The ionic contribution  to forces
     atom    1 type  1   force =     0.00000859   -0.00000496   -0.00000000
     atom    2 type  1   force =    -0.00000862    0.00000497   -0.00000000
     atom    3 type  1   force =    -0.00000859    0.00000496   -0.00000000
     atom    4 type  1   force =     0.00000862   -0.00000497   -0.00000000
     The local contribution  to forces
     atom    1 type  1   force =    -0.00000000    0.00000000    0.00000000
     atom    2 type  1   force =    -0.00000797    0.00000460    0.00000000
     atom    3 type  1   force =    -0.00000000   -0.00000000    0.00000000
     atom    4 type  1   force =     0.00000797   -0.00000460    0.00000000
     The core correction contribution to forces
     atom    1 type  1   force =     0.00000000    0.00000000    0.00000000
     atom    2 type  1   force =     0.00000000    0.00000000    0.00000000
     atom    3 type  1   force =     0.00000000    0.00000000    0.00000000
     atom    4 type  1   force =     0.00000000    0.00000000    0.00000000
     The Hubbard contrib.    to forces
     atom    1 type  1   force =     0.00000000    0.00000000    0.00000000
     atom    2 type  1   force =     0.00000000    0.00000000    0.00000000
     atom    3 type  1   force =     0.00000000    0.00000000    0.00000000
     atom    4 type  1   force =     0.00000000    0.00000000    0.00000000
     The SCF correction term to forces
     atom    1 type  1   force =     0.00000000   -0.00000000   -0.00000000
     atom    2 type  1   force =     0.00000000   -0.00000000    0.00000000
     atom    3 type  1   force =    -0.00000000    0.00000000   -0.00000000
     atom    4 type  1   force =    -0.00000000    0.00000000   -0.00000000

     Total force =     0.000000     Total SCF correction =     0.000000


     Computing stress (Cartesian axis) and pressure

          total   stress  (Ry/bohr**3)                   (kbar)     P=       31.48
   0.00021139   0.00000000  -0.00000000           31.10        0.00       -0.00
  -0.00000000   0.00021139  -0.00000000           -0.00       31.10       -0.00
   0.00000000  -0.00000000   0.00021916            0.00       -0.00       32.24

     kinetic stress (kbar)  10775.07      0.00      0.00
                                0.00  10775.07     -0.00
                                0.00     -0.00  12475.42

     local   stress (kbar) -18216.55      0.01     -0.00
                                0.01 -18216.54     -0.00
                               -0.00     -0.00  25416.92

     nonloc. stress (kbar)   -465.07     -0.00      0.00
                               -0.00   -465.07      0.00
                               -0.00     -0.00   -464.16

     hartree stress (kbar)   7273.34     -0.00      0.00
                               -0.00   7273.34     -0.00
                                0.00     -0.00  -6243.10

     exc-cor stress (kbar)  -2720.62      0.00      0.00
                                0.00  -2720.62     -0.00
                                0.00     -0.00  -2815.64

     corecor stress (kbar)      0.00      0.00      0.00
                                0.00      0.00      0.00
                                0.00      0.00      0.00

     ewald   stress (kbar)   3384.93     -0.03      0.00
                               -0.03   3384.90     -0.00
                                0.00     -0.00 -28337.20

     hubbard stress (kbar)      0.00      0.00      0.00
                                0.00      0.00      0.00
                                0.00      0.00      0.00

     DFT-D   stress (kbar)      0.00      0.00      0.00
                                0.00      0.00      0.00
                                0.00      0.00      0.00

     XDM     stress (kbar)      0.00      0.00      0.00
                                0.00      0.00      0.00
                                0.00      0.00      0.00

     dft-nl  stress (kbar)      0.00      0.00      0.00
                                0.00      0.00      0.00
                                0.00      0.00      0.00

     TS-vdW  stress (kbar)      0.00      0.00      0.00
                                0.00      0.00      0.00
                                0.00      0.00      0.00


                                0.00      0.00      0.00
                                0.00      0.00      0.00


                                0.00      0.00      0.00

     Energy error            =      1.6E-03 Ry
     Gradient error          =      2.8E-22 Ry/Bohr
     Cell gradient error     =      3.2E+01 kbar

     number of scf cycles    =   3
     number of bfgs steps    =   2

     enthalpy           old  =     -45.5731793729 Ry
     enthalpy           new  =     -45.5747321813 Ry

     CASE: enthalpy          _new < enthalpy          _old

     new trust radius        =       0.1173526652 bohr
     new conv_thr            =            1.0E-11 Ry

     new unit-cell volume =    243.66498 a.u.^3 (    36.10742 Ang^3 )
     density =      2.20949 g/cm^3

CELL_PARAMETERS (alat=  4.66006462)
   0.997403362   0.000000000  -0.000000000
  -0.498701681   0.863776649   0.000000000
  -0.000000000   0.000000000   2.794763185

ATOMIC_POSITIONS (crystal)
C             0.0000000000        1.0000000000        0.7500000000
C             0.6666670000        0.3333330000        0.7500000000
C             0.0000000000        1.0000000000        0.2500000000
C             0.3333330000        0.6666670000        0.2500000000



     Writing config-only to output data dir ././graphite_pbe.save/
     NEW-OLD atomic charge density approx. for the potential
     extrapolated charge   16.63388, renormalised to   16.00000

     total cpu time spent up to now is        7.3 secs

     Self-consistent Calculation

     iteration #  1     ecut=    30.00 Ry     beta= 0.30
     Davidson diagonalization with overlap

---- Real-time Memory Report at c_bands before calling an iterative solver
            41 MiB given to the printing process from OS
             0 MiB allocation reported by mallinfo(arena+hblkhd)
           167 MiB available memory on the node where the printing process lives
------------------
     ethr =  1.00E-06,  avg # of iterations =  9.7

     total cpu time spent up to now is        7.6 secs

     total energy              =     -45.56016459 Ry
     estimated scf accuracy    <       0.00691411 Ry

     iteration #  2     ecut=    30.00 Ry     beta= 0.30
     Davidson diagonalization with overlap

---- Real-time Memory Report at c_bands before calling an iterative solver
            41 MiB given to the printing process from OS
             0 MiB allocation reported by mallinfo(arena+hblkhd)
           167 MiB available memory on the node where the printing process lives
------------------
     ethr =  4.32E-05,  avg # of iterations =  5.2

     total cpu time spent up to now is        7.7 secs

     total energy              =     -45.57702412 Ry
     estimated scf accuracy    <       0.00316088 Ry

     iteration #  3     ecut=    30.00 Ry     beta= 0.30
     Davidson diagonalization with overlap

---- Real-time Memory Report at c_bands before calling an iterative solver
            41 MiB given to the printing process from OS
             0 MiB allocation reported by mallinfo(arena+hblkhd)
           167 MiB available memory on the node where the printing process lives
------------------
     ethr =  1.98E-05,  avg # of iterations =  1.3

     total cpu time spent up to now is        7.9 secs

     WARNING: integrated charge=    16.00000312, expected=    16.00000000

     total energy              =     -45.57582632 Ry
     estimated scf accuracy    <       0.00183308 Ry

     iteration #  4     ecut=    30.00 Ry     beta= 0.30
     Davidson diagonalization with overlap

---- Real-time Memory Report at c_bands before calling an iterative solver
            41 MiB given to the printing process from OS
             0 MiB allocation reported by mallinfo(arena+hblkhd)
           167 MiB available memory on the node where the printing process lives
------------------
     ethr =  1.15E-05,  avg # of iterations =  2.2

     total cpu time spent up to now is        8.0 secs

     WARNING: integrated charge=    16.00000306, expected=    16.00000000

     total energy              =     -45.57624250 Ry
     estimated scf accuracy    <       0.00020971 Ry

     iteration #  5     ecut=    30.00 Ry     beta= 0.30
     Davidson diagonalization with overlap

---- Real-time Memory Report at c_bands before calling an iterative solver
            41 MiB given to the printing process from OS
             0 MiB allocation reported by mallinfo(arena+hblkhd)
           167 MiB available memory on the node where the printing process lives
------------------
     ethr =  1.31E-06,  avg # of iterations =  2.7

     total cpu time spent up to now is        8.1 secs

     WARNING: integrated charge=    16.00000318, expected=    16.00000000

     total energy              =     -45.57621797 Ry
     estimated scf accuracy    <       0.00004992 Ry

     iteration #  6     ecut=    30.00 Ry     beta= 0.30
     Davidson diagonalization with overlap

---- Real-time Memory Report at c_bands before calling an iterative solver
            41 MiB given to the printing process from OS
             0 MiB allocation reported by mallinfo(arena+hblkhd)
           167 MiB available memory on the node where the printing process lives
------------------
     ethr =  3.12E-07,  avg # of iterations =  2.0

     total cpu time spent up to now is        8.3 secs

     WARNING: integrated charge=    16.00000320, expected=    16.00000000

     total energy              =     -45.57622765 Ry
     estimated scf accuracy    <       0.00000130 Ry

     iteration #  7     ecut=    30.00 Ry     beta= 0.30
     Davidson diagonalization with overlap

---- Real-time Memory Report at c_bands before calling an iterative solver
            41 MiB given to the printing process from OS
             0 MiB allocation reported by mallinfo(arena+hblkhd)
           167 MiB available memory on the node where the printing process lives
------------------
     ethr =  8.12E-09,  avg # of iterations =  2.0

     total cpu time spent up to now is        8.5 secs

     WARNING: integrated charge=    16.00000320, expected=    16.00000000

     total energy              =     -45.57622790 Ry
     estimated scf accuracy    <       0.00000006 Ry

     iteration #  8     ecut=    30.00 Ry     beta= 0.30
     Davidson diagonalization with overlap

---- Real-time Memory Report at c_bands before calling an iterative solver
            41 MiB given to the printing process from OS
             0 MiB allocation reported by mallinfo(arena+hblkhd)
           167 MiB available memory on the node where the printing process lives
------------------
     ethr =  3.90E-10,  avg # of iterations =  2.0

     total cpu time spent up to now is        8.6 secs

     WARNING: integrated charge=    16.00000321, expected=    16.00000000

     total energy              =     -45.57622792 Ry
     estimated scf accuracy    <       0.00000002 Ry

     iteration #  9     ecut=    30.00 Ry     beta= 0.30
     Davidson diagonalization with overlap

---- Real-time Memory Report at c_bands before calling an iterative solver
            41 MiB given to the printing process from OS
             0 MiB allocation reported by mallinfo(arena+hblkhd)
           167 MiB available memory on the node where the printing process lives
------------------
     ethr =  1.03E-10,  avg # of iterations =  2.0

     total cpu time spent up to now is        8.8 secs

     WARNING: integrated charge=    16.00000320, expected=    16.00000000

     total energy              =     -45.57622792 Ry
     estimated scf accuracy    <          5.8E-10 Ry

     iteration # 10     ecut=    30.00 Ry     beta= 0.30
     Davidson diagonalization with overlap

---- Real-time Memory Report at c_bands before calling an iterative solver
            41 MiB given to the printing process from OS
             0 MiB allocation reported by mallinfo(arena+hblkhd)
           167 MiB available memory on the node where the printing process lives
------------------
     ethr =  3.60E-12,  avg # of iterations =  1.2

     total cpu time spent up to now is        9.0 secs

     WARNING: integrated charge=    16.00000320, expected=    16.00000000

     total energy              =     -45.57622793 Ry
     estimated scf accuracy    <          3.1E-10 Ry

     iteration # 11     ecut=    30.00 Ry     beta= 0.30
     Davidson diagonalization with overlap

---- Real-time Memory Report at c_bands before calling an iterative solver
            41 MiB given to the printing process from OS
             0 MiB allocation reported by mallinfo(arena+hblkhd)
           167 MiB available memory on the node where the printing process lives
------------------
     ethr =  1.91E-12,  avg # of iterations =  2.0

     total cpu time spent up to now is        9.2 secs

     End of self-consistent calculation

          k = 0.1253 0.2171 0.0895 (   626 PWs)   bands (ev):

   -11.7581 -11.5986  -0.1371   0.5162   0.5399   1.0001   1.5816   1.5983
    12.8275  14.8843  15.1172  15.9010

     occupation numbers 
     1.0000   1.0000   1.0000   1.0000   1.0000   1.0000   1.0000   1.0000
     0.0000   0.0000   0.0000   0.0000

          k = 0.1253 0.5065 0.0895 (   635 PWs)   bands (ev):

    -8.2165  -8.0975  -5.3111  -5.2218  -0.7196  -0.6757   3.8092   4.5422
     8.7668   9.2640  15.6675  15.9231

     occupation numbers 
     1.0000   1.0000   1.0000   1.0000   1.0000   1.0000   1.0000   1.0000
     0.0000   0.0000   0.0000   0.0000

          k = 0.1253-0.3618 0.0895 (   638 PWs)   bands (ev):

   -10.3038 -10.1596  -2.2910  -2.2301   0.0517   0.0885   1.5756   2.6123
    11.7765  12.1812  14.5831  16.0128

     occupation numbers 
     1.0000   1.0000   1.0000   1.0000   1.0000   1.0000   1.0000   1.0000
     0.0000   0.0000   0.0000   0.0000

          k = 0.1253-0.0724 0.0895 (   616 PWs)   bands (ev):

   -12.4967 -12.3292  -1.0242   0.1526   2.3131   2.3387   2.9881   3.0066
    11.9338  15.1175  15.2271  15.8400

     occupation numbers 
     1.0000   1.0000   1.0000   1.0000   1.0000   1.0000   1.0000   1.0000
     0.0000   0.0000   0.0000   0.0000

          k = 0.3760 0.6512 0.0895 (   638 PWs)   bands (ev):

    -6.5966  -6.5390  -5.7162  -5.6905  -3.0424  -2.9853   5.4893   5.8962
     7.7079   7.7816  17.5212  17.6086

     occupation numbers 
     1.0000   1.0000   1.0000   1.0000   1.0000   1.0000   1.0000   1.0000
     0.0000   0.0000   0.0000   0.0000

          k = 0.3760-0.2171 0.0895 (   632 PWs)   bands (ev):

    -9.5896  -9.4530  -3.9990  -3.9157   0.6607   0.6892   2.3601   3.3109
    10.2713  10.8729  14.3035  14.4902

     occupation numbers 
     1.0000   1.0000   1.0000   1.0000   1.0000   1.0000   1.0000   1.0000
     0.0000   0.0000   0.0000   0.0000

     the Fermi energy is     6.9820 ev

     WARNING: integrated charge=    16.00000320, expected=    16.00000000

!    total energy              =     -45.57622793 Ry
     estimated scf accuracy    <          2.3E-12 Ry
     smearing contrib. (-TS)   =       0.00000005 Ry
     internal energy E=F+TS    =     -45.57622798 Ry

     The total energy is F=E-TS. E is the sum of the following terms:
     one-electron contribution =     -13.31560922 Ry
     hartree contribution      =      14.40017767 Ry
     xc contribution           =     -14.06112157 Ry
     ewald contribution        =     -32.59967485 Ry

     convergence has been achieved in  11 iterations

     Forces acting on atoms (cartesian axes, Ry/au):

     atom    1 type  1   force =     0.00000000    0.00000000    0.00000000
     atom    2 type  1   force =    -0.00000000    0.00000000   -0.00000000
     atom    3 type  1   force =     0.00000000    0.00000000    0.00000000
     atom    4 type  1   force =     0.00000000   -0.00000000    0.00000000
     The non-local contrib.  to forces
     atom    1 type  1   force =    -0.00000000   -0.00000000   -0.00000000
     atom    2 type  1   force =     0.00000000    0.00000000    0.00000000
     atom    3 type  1   force =     0.00000000    0.00000000    0.00000000
     atom    4 type  1   force =    -0.00000000    0.00000000   -0.00000000
     The ionic contribution  to forces
     atom    1 type  1   force =     0.00000857   -0.00000495   -0.00000000
     atom    2 type  1   force =    -0.00000859    0.00000496   -0.00000000
     atom    3 type  1   force =    -0.00000857    0.00000495   -0.00000000
     atom    4 type  1   force =     0.00000859   -0.00000496   -0.00000000
     The local contribution  to forces
     atom    1 type  1   force =    -0.00000000    0.00000000    0.00000000
     atom    2 type  1   force =    -0.00000799    0.00000461    0.00000000
     atom    3 type  1   force =    -0.00000000   -0.00000000    0.00000000
     atom    4 type  1   force =     0.00000799   -0.00000461    0.00000000
     The core correction contribution to forces
     atom    1 type  1   force =     0.00000000    0.00000000    0.00000000
     atom    2 type  1   force =     0.00000000    0.00000000    0.00000000
     atom    3 type  1   force =     0.00000000    0.00000000    0.00000000
     atom    4 type  1   force =     0.00000000    0.00000000    0.00000000
     The Hubbard contrib.    to forces
[...]

     Dynamical RAM for          nlocal pot:       0.34 MB

     Dynamical RAM for                qrad:       0.71 MB

     Dynamical RAM for          rho,v,vnew:       1.67 MB

     Dynamical RAM for               rhoin:       0.56 MB

     Dynamical RAM for            rho*nmix:       3.85 MB

     Dynamical RAM for           G-vectors:       0.95 MB

     Dynamical RAM for          h,s,v(r/c):       0.03 MB

     Dynamical RAM for          <psi|beta>:       0.01 MB

     Dynamical RAM for                 psi:       0.26 MB

     Dynamical RAM for                hpsi:       0.26 MB

     Dynamical RAM for                spsi:       0.26 MB

     Dynamical RAM for      wfcinit/wfcrot:       0.35 MB

     Dynamical RAM for           addusdens:      11.31 MB

     Dynamical RAM for          addusforce:      12.88 MB

     Dynamical RAM for         addusstress:      12.04 MB

     Estimated static dynamical RAM per process >       7.53 MB

     Estimated max dynamical RAM per process >      24.27 MB

     Initial potential from superposition of free atoms

     starting charge      15.9998, renormalised to      16.0000
     Starting wfcs are   16 randomized atomic wfcs

     total cpu time spent up to now is       14.6 secs

     Self-consistent Calculation

     iteration #  1     ecut=    30.00 Ry     beta= 0.30
     Davidson diagonalization with overlap

---- Real-time Memory Report at c_bands before calling an iterative solver
            46 MiB given to the printing process from OS
             0 MiB allocation reported by mallinfo(arena+hblkhd)
           170 MiB available memory on the node where the printing process lives
------------------
     c_bands:  1 eigenvalues not converged
     ethr =  1.00E-06,  avg # of iterations = 15.2

     total cpu time spent up to now is       15.0 secs

     total energy              =     -45.62041332 Ry
     estimated scf accuracy    <       0.39762585 Ry

     iteration #  2     ecut=    30.00 Ry     beta= 0.30
     Davidson diagonalization with overlap

---- Real-time Memory Report at c_bands before calling an iterative solver
            46 MiB given to the printing process from OS
             0 MiB allocation reported by mallinfo(arena+hblkhd)
           167 MiB available memory on the node where the printing process lives
------------------
     ethr =  2.49E-03,  avg # of iterations =  1.0

     total cpu time spent up to now is       15.1 secs

     WARNING: integrated charge=    16.00000227, expected=    16.00000000

     total energy              =     -45.55739391 Ry
     estimated scf accuracy    <       0.13348667 Ry

     iteration #  3     ecut=    30.00 Ry     beta= 0.30
     Davidson diagonalization with overlap

---- Real-time Memory Report at c_bands before calling an iterative solver
            46 MiB given to the printing process from OS
             0 MiB allocation reported by mallinfo(arena+hblkhd)
           166 MiB available memory on the node where the printing process lives
------------------
     ethr =  8.34E-04,  avg # of iterations =  3.0

     total cpu time spent up to now is       15.3 secs

     WARNING: integrated charge=    16.00000259, expected=    16.00000000

     total energy              =     -45.57734548 Ry
     estimated scf accuracy    <       0.00202390 Ry

     iteration #  4     ecut=    30.00 Ry     beta= 0.30
     Davidson diagonalization with overlap

---- Real-time Memory Report at c_bands before calling an iterative solver
            46 MiB given to the printing process from OS
             0 MiB allocation reported by mallinfo(arena+hblkhd)
           166 MiB available memory on the node where the printing process lives
------------------
     ethr =  1.26E-05,  avg # of iterations =  6.3

     total cpu time spent up to now is       15.5 secs

     WARNING: integrated charge=    16.00000271, expected=    16.00000000

     total energy              =     -45.57754254 Ry
     estimated scf accuracy    <       0.00026473 Ry

     iteration #  5     ecut=    30.00 Ry     beta= 0.30
     Davidson diagonalization with overlap

---- Real-time Memory Report at c_bands before calling an iterative solver
            46 MiB given to the printing process from OS
             0 MiB allocation reported by mallinfo(arena+hblkhd)
           165 MiB available memory on the node where the printing process lives
------------------
     ethr =  1.65E-06,  avg # of iterations =  2.5

     total cpu time spent up to now is       15.6 secs

     WARNING: integrated charge=    16.00000272, expected=    16.00000000

     total energy              =     -45.57757558 Ry
     estimated scf accuracy    <       0.00000245 Ry

     iteration #  6     ecut=    30.00 Ry     beta= 0.30
     Davidson diagonalization with overlap

---- Real-time Memory Report at c_bands before calling an iterative solver
            46 MiB given to the printing process from OS
             0 MiB allocation reported by mallinfo(arena+hblkhd)
           165 MiB available memory on the node where the printing process lives
------------------
     ethr =  1.53E-08,  avg # of iterations =  2.8

     total cpu time spent up to now is       15.8 secs

     WARNING: integrated charge=    16.00000271, expected=    16.00000000

     total energy              =     -45.57757677 Ry
     estimated scf accuracy    <       0.00000236 Ry

     iteration #  7     ecut=    30.00 Ry     beta= 0.30
     Davidson diagonalization with overlap

---- Real-time Memory Report at c_bands before calling an iterative solver
            46 MiB given to the printing process from OS
             0 MiB allocation reported by mallinfo(arena+hblkhd)
           165 MiB available memory on the node where the printing process lives
------------------
     ethr =  1.48E-08,  avg # of iterations =  2.0

     total cpu time spent up to now is       15.9 secs

     WARNING: integrated charge=    16.00000271, expected=    16.00000000

     total energy              =     -45.57757731 Ry
     estimated scf accuracy    <       0.00000003 Ry

     iteration #  8     ecut=    30.00 Ry     beta= 0.30
     Davidson diagonalization with overlap

---- Real-time Memory Report at c_bands before calling an iterative solver
            46 MiB given to the printing process from OS
             0 MiB allocation reported by mallinfo(arena+hblkhd)
           165 MiB available memory on the node where the printing process lives
------------------
     ethr =  1.71E-10,  avg # of iterations =  2.0

     total cpu time spent up to now is       16.1 secs

     WARNING: integrated charge=    16.00000270, expected=    16.00000000

     total energy              =     -45.57757743 Ry
     estimated scf accuracy    <          1.1E-09 Ry

     iteration #  9     ecut=    30.00 Ry     beta= 0.30
     Davidson diagonalization with overlap

---- Real-time Memory Report at c_bands before calling an iterative solver
            46 MiB given to the printing process from OS
             0 MiB allocation reported by mallinfo(arena+hblkhd)
           165 MiB available memory on the node where the printing process lives
------------------
     ethr =  6.67E-12,  avg # of iterations =  2.0

     total cpu time spent up to now is       16.2 secs

     WARNING: integrated charge=    16.00000270, expected=    16.00000000

     total energy              =     -45.57757749 Ry
     estimated scf accuracy    <          7.1E-10 Ry

     iteration # 10     ecut=    30.00 Ry     beta= 0.30
     Davidson diagonalization with overlap

---- Real-time Memory Report at c_bands before calling an iterative solver
            46 MiB given to the printing process from OS
             0 MiB allocation reported by mallinfo(arena+hblkhd)
           165 MiB available memory on the node where the printing process lives
------------------
     ethr =  4.43E-12,  avg # of iterations =  2.0

     total cpu time spent up to now is       16.4 secs

     WARNING: integrated charge=    16.00000270, expected=    16.00000000

     total energy              =     -45.57757751 Ry
     estimated scf accuracy    <          4.3E-11 Ry

     iteration # 11     ecut=    30.00 Ry     beta= 0.30
     Davidson diagonalization with overlap

---- Real-time Memory Report at c_bands before calling an iterative solver
            46 MiB given to the printing process from OS
             0 MiB allocation reported by mallinfo(arena+hblkhd)
           165 MiB available memory on the node where the printing process lives
------------------
     ethr =  2.71E-13,  avg # of iterations =  2.0

     total cpu time spent up to now is       16.6 secs

     End of self-consistent calculation

          k = 0.1252 0.2168 0.0868 (   692 PWs)   bands (ev):

   -12.0603 -11.9351  -0.3835   0.1772   0.1951   0.5880   1.2444   1.2568
    12.2517  14.5425  14.7319  15.4413

     occupation numbers 
     1.0000   1.0000   1.0000   1.0000   1.0000   1.0000   1.0000   1.0000
     0.0000   0.0000   0.0000   0.0000

          k = 0.1252 0.5059 0.0868 (   703 PWs)   bands (ev):

    -8.5308  -8.4383  -5.6306  -5.5616  -1.0482  -1.0150   3.5323   4.1536
     8.4531   8.8766  15.3153  15.5225

     occupation numbers 
     1.0000   1.0000   1.0000   1.0000   1.0000   1.0000   1.0000   1.0000
     0.0000   0.0000   0.0000   0.0000

          k = 0.1252-0.3614 0.0868 (   701 PWs)   bands (ev):

   -10.6104 -10.4977  -2.6207  -2.5740  -0.2792  -0.2515   1.3201   2.2033
    11.4558  11.7921  14.0344  15.6521

     occupation numbers 
     1.0000   1.0000   1.0000   1.0000   1.0000   1.0000   1.0000   1.0000
     0.0000   0.0000   0.0000   0.0000

          k = 0.1252-0.0723 0.0868 (   679 PWs)   bands (ev):

   -12.7966 -12.6649  -1.2671  -0.2602   1.9721   1.9914   2.6469   2.6605
    11.3468  14.6970  14.8502  15.0216

     occupation numbers 
     1.0000   1.0000   1.0000   1.0000   1.0000   1.0000   1.0000   1.0000
     0.0000   0.0000   0.0000   0.0000

          k = 0.3756 0.6505 0.0868 (   700 PWs)   bands (ev):

    -6.9227  -6.8783  -6.0432  -6.0232  -3.3625  -3.3188   5.1941   5.5360
     7.3652   7.4175  17.1835  17.2352

     occupation numbers 
     1.0000   1.0000   1.0000   1.0000   1.0000   1.0000   1.0000   1.0000
     0.0000   0.0000   0.0000   0.0000

          k = 0.3756-0.2168 0.0868 (   702 PWs)   bands (ev):

    -9.8986  -9.7921  -4.3219  -4.2578   0.3275   0.3487   2.0978   2.9067
     9.9656  10.4729  13.9483  14.0922

     occupation numbers 
     1.0000   1.0000   1.0000   1.0000   1.0000   1.0000   1.0000   1.0000
     0.0000   0.0000   0.0000   0.0000

     the Fermi energy is     6.6288 ev

     WARNING: integrated charge=    16.00000270, expected=    16.00000000

!    total energy              =     -45.57757754 Ry
     estimated scf accuracy    <          7.3E-12 Ry
     smearing contrib. (-TS)   =       0.00000004 Ry
     internal energy E=F+TS    =     -45.57757758 Ry

     The total energy is F=E-TS. E is the sum of the following terms:
     one-electron contribution =     -15.71310604 Ry
     hartree contribution      =      15.39570961 Ry
     xc contribution           =     -14.04898106 Ry
     ewald contribution        =     -31.21120009 Ry

     convergence has been achieved in  11 iterations

     Forces acting on atoms (cartesian axes, Ry/au):

     atom    1 type  1   force =    -0.00000000    0.00000000   -0.00000000
     atom    2 type  1   force =     0.00000000   -0.00000000    0.00000000
     atom    3 type  1   force =    -0.00000000    0.00000000   -0.00000000
     atom    4 type  1   force =    -0.00000000    0.00000000   -0.00000000
     The non-local contrib.  to forces
     atom    1 type  1   force =     0.00000000    0.00000000    0.00000000
     atom    2 type  1   force =     0.00000000   -0.00000000    0.00000000
     atom    3 type  1   force =    -0.00000000    0.00000000   -0.00000000
     atom    4 type  1   force =     0.00000000   -0.00000000    0.00000000
     The ionic contribution  to forces
     atom    1 type  1   force =     0.00000855   -0.00000494    0.00000000
     atom    2 type  1   force =    -0.00000856    0.00000494    0.00000000
     atom    3 type  1   force =    -0.00000855    0.00000494    0.00000000
     atom    4 type  1   force =     0.00000856   -0.00000494    0.00000000
     The local contribution  to forces
     atom    1 type  1   force =    -0.00000000    0.00000000    0.00000000
     atom    2 type  1   force =    -0.00000800    0.00000462    0.00000000
     atom    3 type  1   force =    -0.00000000   -0.00000000    0.00000000
     atom    4 type  1   force =     0.00000800   -0.00000462    0.00000000
     The core correction contribution to forces
     atom    1 type  1   force =     0.00000000    0.00000000    0.00000000
     atom    2 type  1   force =     0.00000000    0.00000000    0.00000000
     atom    3 type  1   force =     0.00000000    0.00000000    0.00000000
     atom    4 type  1   force =     0.00000000    0.00000000    0.00000000
     The Hubbard contrib.    to forces
     atom    1 type  1   force =     0.00000000    0.00000000    0.00000000
     atom    2 type  1   force =     0.00000000    0.00000000    0.00000000
     atom    3 type  1   force =     0.00000000    0.00000000    0.00000000
     atom    4 type  1   force =     0.00000000    0.00000000    0.00000000
     The SCF correction term to forces
     atom    1 type  1   force =     0.00000000   -0.00000000    0.00000000
     atom    2 type  1   force =     0.00000000   -0.00000000    0.00000000
     atom    3 type  1   force =    -0.00000000    0.00000000   -0.00000000
     atom    4 type  1   force =    -0.00000000    0.00000000   -0.00000000

     Total force =     0.000000     Total SCF correction =     0.000000


     Computing stress (Cartesian axis) and pressure

          total   stress  (Ry/bohr**3)                   (kbar)     P=        6.04
   0.00001415  -0.00000000   0.00000000            2.08       -0.00        0.00
  -0.00000000   0.00001415   0.00000000           -0.00        2.08        0.00
  -0.00000000  -0.00000000   0.00009494           -0.00       -0.00       13.97

     kinetic stress (kbar)   9992.03     -0.00      0.00
                               -0.00   9992.03      0.00
                                0.00     -0.00  11574.15

     local   stress (kbar) -19976.30      0.01      0.00
                                0.01 -19976.29      0.00
                                0.00      0.00  26607.82

     nonloc. stress (kbar)   -427.26     -0.00     -0.00
                               -0.00   -427.26      0.00
                               -0.00      0.00   -425.47

     hartree stress (kbar)   8038.62      0.00     -0.00
                                0.00   8038.62      0.00
                               -0.00      0.00  -7074.05

     exc-cor stress (kbar)  -2524.76      0.00     -0.00
                                0.00  -2524.76      0.00
                               -0.00      0.00  -2617.14

     corecor stress (kbar)      0.00      0.00      0.00
                                0.00      0.00      0.00
                                0.00      0.00      0.00

     ewald   stress (kbar)   4899.76     -0.02     -0.00
                               -0.02   4899.73      0.00
                               -0.00      0.00 -28051.34

     hubbard stress (kbar)      0.00      0.00      0.00
                                0.00      0.00      0.00
                                0.00      0.00      0.00

     DFT-D   stress (kbar)      0.00      0.00      0.00
                                0.00      0.00      0.00
                                0.00      0.00      0.00

     XDM     stress (kbar)      0.00      0.00      0.00
                                0.00      0.00      0.00
                                0.00      0.00      0.00

     dft-nl  stress (kbar)      0.00      0.00      0.00
                                0.00      0.00      0.00
                                0.00      0.00      0.00

     TS-vdW  stress (kbar)      0.00      0.00      0.00
                                0.00      0.00      0.00
                                0.00      0.00      0.00


                                0.00      0.00      0.00
                                0.00      0.00      0.00


                                0.00      0.00      0.00


     Writing all to output data dir ././graphite_pbe.save/

     init_run     :      0.74s CPU      0.81s WALL (       2 calls)
     electrons    :     11.48s CPU     11.79s WALL (       7 calls)
     update_pot   :      1.49s CPU      1.50s WALL (       5 calls)
     forces       :      1.07s CPU      1.08s WALL (       7 calls)
     stress       :      1.68s CPU      1.71s WALL (       7 calls)

     Called by init_run:
     wfcinit      :      0.11s CPU      0.11s WALL (       2 calls)
     wfcinit:atom :      0.00s CPU      0.00s WALL (      12 calls)
     wfcinit:wfcr :      0.10s CPU      0.10s WALL (      12 calls)
     potinit      :      0.26s CPU      0.28s WALL (       2 calls)
     hinit0       :      0.34s CPU      0.35s WALL (       2 calls)

     Called by electrons:
     c_bands      :      7.26s CPU      7.45s WALL (      74 calls)
     sum_band     :      1.79s CPU      1.84s WALL (      74 calls)
     v_of_rho     :      1.41s CPU      1.44s WALL (      81 calls)
     v_h          :      0.07s CPU      0.07s WALL (      81 calls)
     v_xc         :      1.34s CPU      1.37s WALL (      81 calls)
     newd         :      0.90s CPU      0.93s WALL (      81 calls)
     mix_rho      :      0.15s CPU      0.15s WALL (      74 calls)

     Called by c_bands:
     init_us_2    :      0.13s CPU      0.13s WALL (     984 calls)
     init_us_2:cp :      0.12s CPU      0.13s WALL (     984 calls)
     cegterg      :      7.05s CPU      7.22s WALL (     444 calls)

     Called by sum_band:
     sum_band:wei :      0.01s CPU      0.01s WALL (      74 calls)
     sum_band:loo :      1.02s CPU      1.05s WALL (      74 calls)
     sum_band:buf :      0.01s CPU      0.01s WALL (     444 calls)
     sum_band:ini :      0.05s CPU      0.06s WALL (     444 calls)
     sum_band:cal :      0.14s CPU      0.14s WALL (     444 calls)
     sum_band:bec :      0.00s CPU      0.00s WALL (     444 calls)
     addusdens    :      0.58s CPU      0.60s WALL (      74 calls)
     addusd:skk   :      0.02s CPU      0.02s WALL (      74 calls)
     addusd:dgemm :      0.22s CPU      0.22s WALL (      74 calls)
     addusd:qvan2 :      0.22s CPU      0.23s WALL (      74 calls)

     Called by *egterg:
     cdiaghg      :      0.22s CPU      0.23s WALL (    1627 calls)
     cegterg:over :      0.36s CPU      0.38s WALL (    1213 calls)
     cegterg:upda :      0.18s CPU      0.18s WALL (    1213 calls)
     cegterg:last :      0.38s CPU      0.40s WALL (     926 calls)
     h_psi        :      5.46s CPU      5.59s WALL (    1669 calls)
     s_psi        :      0.33s CPU      0.34s WALL (    1669 calls)
     g_psi        :      0.02s CPU      0.02s WALL (    1213 calls)

     Called by h_psi:
     h_psi:calbec :      0.42s CPU      0.42s WALL (    1669 calls)
     vloc_psi     :      4.68s CPU      4.79s WALL (    1669 calls)
     add_vuspsi   :      0.34s CPU      0.35s WALL (    1669 calls)

     General routines
     calbec       :      0.62s CPU      0.63s WALL (    2323 calls)
     fft          :      0.70s CPU      0.70s WALL (    1100 calls)
     ffts         :      0.04s CPU      0.04s WALL (     155 calls)
     fftw         :      4.96s CPU      5.09s WALL (   34674 calls)
     interpolate  :      0.08s CPU      0.08s WALL (      81 calls)

     Parallel routines

     PWSCF        :     16.59s CPU     17.02s WALL


   This run was terminated on:   8:43:41   2Feb2022            

=------------------------------------------------------------------------------=
   JOB DONE.
=------------------------------------------------------------------------------=
