
     Program PROJWFC v.7.0 starts on  1Feb2022 at 20: 0:53 

     This program is part of the open-source Quantum ESPRESSO suite
     for quantum simulation of materials; please cite
         "P. Giannozzi et al., J. Phys.:Condens. Matter 21 395502 (2009);
         "P. Giannozzi et al., J. Phys.:Condens. Matter 29 465901 (2017);
         "P. Giannozzi et al., J. Chem. Phys. 152 154105 (2020);
          URL http://www.quantum-espresso.org", 
     in publications or presentations arising from this work. More details at
     http://www.quantum-espresso.org/quote

     Parallel version (MPI), running on     1 processors

     MPI processes distributed on     1 nodes
     317 MiB available memory on the printing compute node when the environment starts


     Reading xml data from directory:

     ./nio_hub.save/
     Message from routine volume:
     axis vectors are left-handed

     IMPORTANT: XC functional enforced from input :
     Exchange-correlation= PBE
                           (   1   4   3   4   0   0   0)
     Any further DFT definition will be discarded
     Please, verify this is what you really want


     G-vector sticks info
     --------------------
     sticks:   dense  smooth     PW     G-vecs:    dense   smooth      PW
     Sum        2457     813    283                60755    11627    2381

     Using Slab Decomposition


     Check: negative core charge=   -0.000010

     Gaussian broadening (read from input): ngauss,degauss=   0    0.010000


     Calling projwave .... 

     Subspace diagonalization in iterative solution of the eigenvalue problem:
     a serial algorithm will be used


  Problem Sizes 
  natomwfc =           34
  nbnd     =           30
  nkstot   =          378
  npwx     =         1478
  nkb      =           62


     Atomic states used for projection
     (read from pseudopotential files):

     state #   1: atom   1 (O  ), wfc  1 (l=0 m= 1)
     state #   2: atom   1 (O  ), wfc  2 (l=1 m= 1)
     state #   3: atom   1 (O  ), wfc  2 (l=1 m= 2)
     state #   4: atom   1 (O  ), wfc  2 (l=1 m= 3)
     state #   5: atom   2 (O  ), wfc  1 (l=0 m= 1)
     state #   6: atom   2 (O  ), wfc  2 (l=1 m= 1)
     state #   7: atom   2 (O  ), wfc  2 (l=1 m= 2)
     state #   8: atom   2 (O  ), wfc  2 (l=1 m= 3)
     state #   9: atom   3 (Ni1), wfc  1 (l=0 m= 1)
     state #  10: atom   3 (Ni1), wfc  2 (l=1 m= 1)
     state #  11: atom   3 (Ni1), wfc  2 (l=1 m= 2)
     state #  12: atom   3 (Ni1), wfc  2 (l=1 m= 3)
     state #  13: atom   3 (Ni1), wfc  3 (l=2 m= 1)
     state #  14: atom   3 (Ni1), wfc  3 (l=2 m= 2)
     state #  15: atom   3 (Ni1), wfc  3 (l=2 m= 3)
     state #  16: atom   3 (Ni1), wfc  3 (l=2 m= 4)
     state #  17: atom   3 (Ni1), wfc  3 (l=2 m= 5)
     state #  18: atom   3 (Ni1), wfc  4 (l=0 m= 1)
     state #  19: atom   3 (Ni1), wfc  5 (l=1 m= 1)
     state #  20: atom   3 (Ni1), wfc  5 (l=1 m= 2)
     state #  21: atom   3 (Ni1), wfc  5 (l=1 m= 3)
     state #  22: atom   4 (Ni2), wfc  1 (l=0 m= 1)
     state #  23: atom   4 (Ni2), wfc  2 (l=1 m= 1)
     state #  24: atom   4 (Ni2), wfc  2 (l=1 m= 2)
     state #  25: atom   4 (Ni2), wfc  2 (l=1 m= 3)
     state #  26: atom   4 (Ni2), wfc  3 (l=2 m= 1)
     state #  27: atom   4 (Ni2), wfc  3 (l=2 m= 2)
     state #  28: atom   4 (Ni2), wfc  3 (l=2 m= 3)
     state #  29: atom   4 (Ni2), wfc  3 (l=2 m= 4)
     state #  30: atom   4 (Ni2), wfc  3 (l=2 m= 5)
     state #  31: atom   4 (Ni2), wfc  4 (l=0 m= 1)
     state #  32: atom   4 (Ni2), wfc  5 (l=1 m= 1)
     state #  33: atom   4 (Ni2), wfc  5 (l=1 m= 2)
     state #  34: atom   4 (Ni2), wfc  5 (l=1 m= 3)

 k =   0.0000000000  0.0000000000  0.0000000000
==== e(   1) =   -90.51553 eV ==== 
     psi = 0.993*[#   9]+0.002*[#  31]
    |psi|^2 = 1.000
==== e(   2) =   -88.26606 eV ==== 
     psi = 0.993*[#  22]+0.002*[#  18]
    |psi|^2 = 1.000
==== e(   3) =   -50.89836 eV ==== 
     psi = 0.221*[#  10]+0.221*[#  11]+0.221*[#  12]
    |psi|^2 = 0.668
==== e(   4) =   -50.88081 eV ==== 
     psi = 0.138*[#  10]+0.138*[#  11]+0.138*[#  12]
    |psi|^2 = 0.416
==== e(   5) =   -50.88081 eV ==== 
     psi = 0.332*[#  10]+0.332*[#  11]+0.332*[#  12]
    |psi|^2 = 1.000
==== e(   6) =   -48.71815 eV ==== 
     psi = 0.221*[#  23]+0.221*[#  24]+0.221*[#  25]+0.194*[#  10]+0.194*[#  11]
          +0.194*[#  12]+0.001*[#  19]+0.001*[#  20]+0.001*[#  21]
    |psi|^2 = 1.249
==== e(   7) =   -48.70203 eV ==== 
     psi = 0.252*[#  23]+0.252*[#  24]+0.252*[#  25]
    |psi|^2 = 0.758
==== e(   8) =   -48.70203 eV ==== 
     psi = 0.413*[#  23]+0.413*[#  24]+0.413*[#  25]
    |psi|^2 = 1.242
==== e(   9) =    -5.64617 eV ==== 
     psi = 0.337*[#   1]+0.337*[#   5]+0.162*[#  18]+0.160*[#  31]+0.002*[#   9]
          +0.002*[#  22]
    |psi|^2 = 1.000
==== e(  10) =    -4.17556 eV ==== 
     psi = 0.368*[#   1]+0.368*[#   5]+0.029*[#  19]+0.029*[#  20]+0.029*[#  21]
          +0.029*[#  32]+0.029*[#  33]+0.029*[#  34]
    |psi|^2 = 0.912
==== e(  11) =     5.64853 eV ==== 
     psi = 0.110*[#  31]+0.109*[#  18]+0.057*[#  14]+0.057*[#  15]+0.057*[#  17]
          +0.056*[#   2]+0.056*[#   3]+0.056*[#   4]+0.056*[#   6]+0.056*[#   7]
          +0.056*[#   8]+0.034*[#  27]+0.034*[#  28]+0.034*[#  30]+0.015*[#  19]
          +0.015*[#  20]+0.015*[#  21]+0.014*[#  32]+0.014*[#  33]+0.014*[#  34]
          +0.002*[#  22]+0.002*[#   9]
    |psi|^2 = 0.917
==== e(  12) =     7.43399 eV ==== 
     psi = 0.323*[#  13]+0.323*[#  16]+0.017*[#  14]+0.017*[#  15]+0.017*[#  17]
          +0.015*[#   2]+0.015*[#   3]+0.015*[#   4]+0.015*[#   6]+0.015*[#   7]
          +0.015*[#   8]+0.015*[#  19]+0.015*[#  20]+0.015*[#  21]+0.014*[#  32]
          +0.014*[#  33]+0.014*[#  34]+0.009*[#  26]+0.009*[#  29]+0.006*[#  27]
          +0.006*[#  28]+0.006*[#  30]
    |psi|^2 = 0.909
==== e(  13) =     7.43399 eV ==== 
     psi = 0.323*[#  13]+0.323*[#  16]+0.044*[#   2]+0.044*[#   3]+0.044*[#   4]
          +0.044*[#   6]+0.044*[#   7]+0.044*[#   8]+0.017*[#  14]+0.017*[#  15]
          +0.017*[#  17]+0.009*[#  26]+0.009*[#  29]+0.006*[#  27]+0.006*[#  28]
          +0.006*[#  30]
    |psi|^2 = 0.998
==== e(  14) =     9.28797 eV ==== 
     psi = 0.291*[#  14]+0.291*[#  15]+0.291*[#  17]+0.026*[#  13]+0.026*[#  16]
          +0.024*[#  27]+0.024*[#  28]+0.024*[#  30]+0.022*[#   2]+0.022*[#   3]
          +0.022*[#   4]+0.022*[#   6]+0.022*[#   7]+0.022*[#   8]
    |psi|^2 = 1.126
==== e(  15) =     9.28797 eV ==== 
     psi = 0.291*[#  14]+0.291*[#  15]+0.291*[#  17]+0.026*[#  13]+0.026*[#  16]
          +0.024*[#  27]+0.024*[#  28]+0.024*[#  30]
    |psi|^2 = 0.995
==== e(  16) =     9.49728 eV ==== 
     psi = 0.220*[#  14]+0.220*[#  15]+0.220*[#  17]+0.099*[#  27]+0.099*[#  28]
          +0.099*[#  30]+0.004*[#  18]+0.004*[#  31]+0.003*[#   2]+0.003*[#   3]
          +0.003*[#   4]+0.003*[#   6]+0.003*[#   7]+0.003*[#   8]
    |psi|^2 = 0.984
==== e(  17) =    10.50858 eV ==== 
     psi = 0.260*[#  27]+0.260*[#  28]+0.260*[#  30]+0.062*[#  13]+0.062*[#  16]
          +0.010*[#  26]+0.010*[#  29]+0.009*[#  14]+0.009*[#  15]+0.009*[#  17]
          +0.007*[#   2]+0.007*[#   3]+0.007*[#   4]+0.007*[#   6]+0.007*[#   7]
          +0.007*[#   8]
    |psi|^2 = 0.994
==== e(  18) =    10.50858 eV ==== 
     psi = 0.260*[#  27]+0.260*[#  28]+0.260*[#  30]+0.062*[#  13]+0.062*[#  16]
          +0.010*[#  26]+0.010*[#  29]+0.009*[#  14]+0.009*[#  15]+0.009*[#  17]
          +0.008*[#   2]+0.008*[#   3]+0.008*[#   4]+0.008*[#   6]+0.008*[#   7]
          +0.008*[#   8]
    |psi|^2 = 1.002
==== e(  19) =    11.67522 eV ==== 
     psi = 0.197*[#  27]+0.197*[#  28]+0.197*[#  30]+0.055*[#  14]+0.055*[#  15]
          +0.055*[#  17]+0.023*[#  18]+0.023*[#  31]+0.021*[#   2]+0.021*[#   3]
          +0.021*[#   4]+0.021*[#   6]+0.021*[#   7]+0.021*[#   8]
    |psi|^2 = 0.933
==== e(  20) =    11.79531 eV ==== 
     psi = 0.091*[#   2]+0.091*[#   3]+0.091*[#   4]+0.091*[#   6]+0.091*[#   7]
          +0.091*[#   8]+0.003*[#  19]+0.003*[#  20]+0.003*[#  21]+0.003*[#  32]
          +0.003*[#  33]+0.003*[#  34]
    |psi|^2 = 0.563
==== e(  21) =    11.79531 eV ==== 
     psi = 0.160*[#   2]+0.160*[#   3]+0.160*[#   4]+0.160*[#   6]+0.160*[#   7]
          +0.160*[#   8]+0.006*[#  19]+0.006*[#  20]+0.006*[#  21]+0.006*[#  32]
          +0.006*[#  33]+0.006*[#  34]
    |psi|^2 = 0.996
==== e(  22) =    11.80108 eV ==== 
     psi = 0.213*[#   2]+0.213*[#   3]+0.213*[#   4]+0.213*[#   6]+0.213*[#   7]
          +0.213*[#   8]+0.007*[#  19]+0.007*[#  20]+0.007*[#  21]+0.007*[#  32]
          +0.007*[#  33]+0.007*[#  34]
    |psi|^2 = 1.322
==== e(  23) =    12.25007 eV ==== 
     psi = 0.125*[#  26]+0.125*[#  29]+0.078*[#   2]+0.078*[#   3]+0.078*[#   4]
          +0.078*[#   6]+0.078*[#   7]+0.078*[#   8]+0.074*[#  13]+0.074*[#  16]
          +0.040*[#  27]+0.040*[#  28]+0.040*[#  30]+0.015*[#  14]+0.015*[#  15]
          +0.015*[#  17]+0.002*[#  32]+0.002*[#  33]+0.002*[#  34]+0.002*[#  19]
          +0.002*[#  20]+0.002*[#  21]
    |psi|^2 = 1.039
==== e(  24) =    12.25007 eV ==== 
     psi = 0.126*[#   2]+0.126*[#   3]+0.126*[#   4]+0.126*[#   6]+0.126*[#   7]
          +0.126*[#   8]+0.125*[#  26]+0.125*[#  29]+0.074*[#  13]+0.074*[#  16]
          +0.040*[#  27]+0.040*[#  28]+0.040*[#  30]+0.015*[#  14]+0.015*[#  15]
          +0.015*[#  17]+0.002*[#  32]+0.002*[#  33]+0.002*[#  34]+0.002*[#  19]
          +0.002*[#  20]+0.002*[#  21]
    |psi|^2 = 1.328
==== e(  25) =    16.12078 eV ==== 
     psi = 0.344*[#  18]+0.327*[#  31]+0.162*[#   1]+0.162*[#   5]
    |psi|^2 = 0.995
==== e(  26) =    16.52287 eV ==== 
     psi = 0.353*[#  26]+0.353*[#  29]+0.015*[#  13]+0.015*[#  16]+0.014*[#   2]
          +0.014*[#   3]+0.014*[#   4]+0.014*[#   6]+0.014*[#   7]+0.014*[#   8]
          
    |psi|^2 = 0.825
==== e(  27) =    16.52287 eV ==== 
     psi = 0.353*[#  26]+0.353*[#  29]+0.071*[#   2]+0.071*[#   3]+0.071*[#   4]
          +0.071*[#   6]+0.071*[#   7]+0.071*[#   8]+0.015*[#  13]+0.015*[#  16]
          
    |psi|^2 = 1.168
==== e(  28) =    20.04545 eV ==== 
     psi = 0.123*[#   1]+0.123*[#   5]+0.079*[#  19]+0.079*[#  20]+0.079*[#  21]
          +0.077*[#  32]+0.077*[#  33]+0.077*[#  34]+0.007*[#   2]+0.007*[#   3]
          +0.007*[#   4]+0.007*[#   6]+0.007*[#   7]+0.007*[#   8]
    |psi|^2 = 0.757
==== e(  29) =    24.70521 eV ==== 
     psi = 0.352*[#  31]+0.336*[#  18]+0.043*[#   2]+0.043*[#   3]+0.043*[#   4]
          +0.043*[#   6]+0.043*[#   7]+0.043*[#   8]+0.002*[#   9]+0.002*[#  22]
          
    |psi|^2 = 0.956
==== e(  30) =    28.46585 eV ==== 
     psi = 0.162*[#  19]+0.162*[#  20]+0.162*[#  21]+0.150*[#  32]+0.150*[#  33]
          +0.150*[#  34]
    |psi|^2 = 0.937

 k =   0.1250000000 -0.0416666667 -0.0416666667
==== e(   1) =   -90.51537 eV ==== 
     psi = 0.991*[#   9]+0.001*[#  31]
    |psi|^2 = 1.000
==== e(   2) =   -88.26589 eV ==== 
     psi = 0.991*[#  22]+0.001*[#  18]
    |psi|^2 = 1.002
==== e(   3) =   -50.89816 eV ==== 
     psi = 0.221*[#  10]+0.221*[#  11]+0.221*[#  12]
    |psi|^2 = 0.668
==== e(   4) =   -50.88237 eV ==== 
     psi = 0.277*[#  10]+0.277*[#  11]+0.277*[#  12]
    |psi|^2 = 0.838
==== e(   5) =   -50.88121 eV ==== 
     psi = 0.332*[#  10]+0.332*[#  11]+0.332*[#  12]
    |psi|^2 = 1.000
==== e(   6) =   -48.71794 eV ==== 
     psi = 0.221*[#  23]+0.221*[#  24]+0.221*[#  25]
    |psi|^2 = 0.666
==== e(   7) =   -48.70380 eV ==== 
     psi = 0.388*[#  23]+0.388*[#  24]+0.388*[#  25]
    |psi|^2 = 1.168
==== e(   8) =   -48.70248 eV ==== 
     psi = 0.277*[#  23]+0.277*[#  24]+0.277*[#  25]
    |psi|^2 = 0.832
==== e(   9) =    -5.57003 eV ==== 
     psi = 0.335*[#   1]+0.335*[#   5]+0.144*[#  18]+0.142*[#  31]+0.006*[#  19]
          +0.006*[#  20]+0.006*[#  21]+0.006*[#  32]+0.006*[#  33]+0.006*[#  34]
          +0.002*[#   9]+0.002*[#  22]
    |psi|^2 = 1.000
==== e(  10) =    -4.17113 eV ==== 
     psi = 0.372*[#   1]+0.372*[#   5]+0.032*[#  19]+0.032*[#  20]+0.032*[#  21]
          +0.032*[#  32]+0.032*[#  33]+0.032*[#  34]+0.001*[#  13]+0.001*[#  16]
          
    |psi|^2 = 0.944
==== e(  11) =     5.78285 eV ==== 
     psi = 0.102*[#  31]+0.101*[#  18]+0.057*[#  14]+0.057*[#  15]+0.057*[#  17]
          +0.055*[#   2]+0.055*[#   3]+0.055*[#   4]+0.055*[#   6]+0.055*[#   7]
          +0.055*[#   8]+0.033*[#  27]+0.033*[#  28]+0.033*[#  30]+0.017*[#  19]
          +0.017*[#  20]+0.017*[#  21]+0.017*[#  32]+0.017*[#  33]+0.017*[#  34]
          +0.002*[#  22]+0.002*[#   9]
    |psi|^2 = 0.912
==== e(  12) =     7.41951 eV ==== 
     psi = 0.312*[#  13]+0.312*[#  16]+0.039*[#   2]+0.039*[#   3]+0.039*[#   4]
          +0.039*[#   6]+0.039*[#   7]+0.039*[#   8]+0.019*[#  14]+0.019*[#  15]
          +0.019*[#  17]+0.014*[#  32]+0.014*[#  33]+0.014*[#  34]+0.014*[#  19]
          +0.014*[#  20]+0.014*[#  21]+0.007*[#  27]+0.007*[#  28]+0.007*[#  30]
          +0.006*[#  26]+0.006*[#  29]
    |psi|^2 = 1.032
==== e(  13) =     7.46504 eV ==== 
     psi = 0.328*[#  13]+0.328*[#  16]+0.044*[#   2]+0.044*[#   3]+0.044*[#   4]
          +0.044*[#   6]+0.044*[#   7]+0.044*[#   8]+0.014*[#  14]+0.014*[#  15]
          +0.014*[#  17]+0.008*[#  26]+0.008*[#  29]+0.006*[#  27]+0.006*[#  28]
          +0.006*[#  30]
    |psi|^2 = 0.998
==== e(  14) =     9.18527 eV ==== 
     psi = 0.275*[#  14]+0.275*[#  15]+0.275*[#  17]+0.028*[#  13]+0.028*[#  16]
          +0.023*[#  27]+0.023*[#  28]+0.023*[#  30]+0.004*[#   2]+0.004*[#   3]
          +0.004*[#   4]+0.004*[#   6]+0.004*[#   7]+0.004*[#   8]+0.001*[#  18]
          
    |psi|^2 = 0.984
==== e(  15) =     9.25023 eV ==== 
     psi = 0.285*[#  14]+0.285*[#  15]+0.285*[#  17]+0.023*[#  27]+0.023*[#  28]
          +0.023*[#  30]+0.020*[#  13]+0.020*[#  16]+0.004*[#   2]+0.004*[#   3]
          +0.004*[#   4]+0.004*[#   6]+0.004*[#   7]+0.004*[#   8]
    |psi|^2 = 0.990
==== e(  16) =     9.49717 eV ==== 
     psi = 0.218*[#  14]+0.218*[#  15]+0.218*[#  17]+0.096*[#  27]+0.096*[#  28]
          +0.096*[#  30]+0.007*[#   2]+0.007*[#   3]+0.007*[#   4]+0.007*[#   6]
          +0.007*[#   7]+0.007*[#   8]+0.007*[#  18]+0.002*[#  31]
    |psi|^2 = 0.998
==== e(  17) =    10.29332 eV ==== 
     psi = 0.214*[#  27]+0.214*[#  28]+0.214*[#  30]+0.065*[#  13]+0.065*[#  16]
          +0.026*[#   2]+0.026*[#   3]+0.026*[#   4]+0.026*[#   6]+0.026*[#   7]
          +0.026*[#   8]+0.019*[#  26]+0.019*[#  29]+0.005*[#  14]+0.005*[#  15]
          +0.005*[#  17]+0.003*[#  19]+0.003*[#  20]+0.003*[#  21]+0.002*[#   1]
          +0.002*[#   5]
    |psi|^2 = 0.994
==== e(  18) =    10.54672 eV ==== 
     psi = 0.262*[#  27]+0.262*[#  28]+0.262*[#  30]+0.057*[#  13]+0.057*[#  16]
          +0.019*[#   2]+0.019*[#   3]+0.019*[#   4]+0.019*[#   6]+0.019*[#   7]
          +0.019*[#   8]+0.011*[#  14]+0.011*[#  15]+0.011*[#  17]+0.008*[#  26]
          +0.008*[#  29]+0.001*[#  19]+0.001*[#  20]+0.001*[#  21]
    |psi|^2 = 1.074
==== e(  19) =    11.26168 eV ==== 
     psi = 0.116*[#   2]+0.116*[#   3]+0.116*[#   4]+0.116*[#   6]+0.116*[#   7]
          +0.116*[#   8]+0.032*[#  26]+0.032*[#  29]+0.026*[#  27]+0.026*[#  28]
          +0.026*[#  30]+0.026*[#  14]+0.026*[#  15]+0.026*[#  17]+0.023*[#  31]
          +0.015*[#  18]+0.010*[#   1]+0.010*[#   5]+0.003*[#  19]+0.003*[#  20]
          +0.003*[#  21]
    |psi|^2 = 0.985
==== e(  20) =    11.62496 eV ==== 
     psi = 0.172*[#  27]+0.172*[#  28]+0.172*[#  30]+0.052*[#  14]+0.052*[#  15]
          +0.052*[#  17]+0.025*[#   2]+0.025*[#   3]+0.025*[#   4]+0.025*[#   6]
          +0.025*[#   7]+0.025*[#   8]+0.024*[#  31]+0.017*[#  18]+0.003*[#  26]
          +0.003*[#  29]
    |psi|^2 = 0.875
==== e(  21) =    11.67907 eV ==== 
     psi = 0.136*[#   2]+0.136*[#   3]+0.136*[#   4]+0.136*[#   6]+0.136*[#   7]
          +0.136*[#   8]+0.039*[#  26]+0.039*[#  29]+0.017*[#  14]+0.017*[#  15]
          +0.017*[#  17]+0.012*[#  13]+0.012*[#  16]+0.006*[#  19]+0.006*[#  20]
          +0.006*[#  21]+0.002*[#  32]+0.002*[#  33]+0.002*[#  34]
    |psi|^2 = 0.996
==== e(  22) =    11.82690 eV ==== 
     psi = 0.066*[#  27]+0.066*[#  28]+0.066*[#  30]+0.065*[#   2]+0.065*[#   3]
          +0.065*[#   4]+0.065*[#   6]+0.065*[#   7]+0.065*[#   8]+0.012*[#  18]
          +0.007*[#  26]+0.007*[#  29]+0.002*[#  14]+0.002*[#  15]+0.002*[#  17]
          +0.002*[#   5]+0.002*[#  19]+0.002*[#  20]+0.002*[#  21]+0.002*[#  32]
          +0.002*[#  33]+0.002*[#  34]+0.002*[#   1]
    |psi|^2 = 0.637
==== e(  23) =    12.35552 eV ==== 
     psi = 0.104*[#   2]+0.104*[#   3]+0.104*[#   4]+0.104*[#   6]+0.104*[#   7]
          +0.104*[#   8]+0.082*[#  26]+0.082*[#  29]+0.068*[#  13]+0.068*[#  16]
          +0.039*[#  27]+0.039*[#  28]+0.039*[#  30]+0.005*[#  14]+0.005*[#  15]
          +0.005*[#  17]+0.004*[#  32]+0.004*[#  33]+0.004*[#  34]+0.002*[#  19]
          +0.002*[#  20]+0.002*[#  21]
    |psi|^2 = 1.073
==== e(  24) =    12.53086 eV ==== 
     psi = 0.094*[#   2]+0.094*[#   3]+0.094*[#   4]+0.094*[#   6]+0.094*[#   7]
          +0.094*[#   8]+0.081*[#  13]+0.081*[#  16]+0.052*[#  26]+0.052*[#  29]
          +0.021*[#  27]+0.021*[#  28]+0.021*[#  30]+0.010*[#  14]+0.010*[#  15]
          +0.010*[#  17]+0.007*[#  31]+0.006*[#  18]+0.005*[#  32]+0.005*[#  33]
          +0.005*[#  34]+0.005*[#   1]+0.005*[#   5]
    |psi|^2 = 0.963
==== e(  25) =    16.30023 eV ==== 
     psi = 0.329*[#  26]+0.329*[#  29]+0.044*[#  18]+0.030*[#  31]+0.029*[#   2]
          +0.029*[#   3]+0.029*[#   4]+0.029*[#   6]+0.029*[#   7]+0.029*[#   8]
          +0.024*[#   1]+0.024*[#   5]+0.010*[#  13]+0.010*[#  16]+0.004*[#  32]
          +0.004*[#  33]+0.004*[#  34]+0.003*[#  19]+0.003*[#  20]+0.003*[#  21]
          
    |psi|^2 = 0.996
==== e(  26) =    16.49538 eV ==== 
     psi = 0.359*[#  26]+0.359*[#  29]+0.039*[#   2]+0.039*[#   3]+0.039*[#   4]
          +0.039*[#   6]+0.039*[#   7]+0.039*[#   8]+0.014*[#  13]+0.014*[#  16]
          +0.004*[#  32]+0.004*[#  33]+0.004*[#  34]+0.001*[#  19]+0.001*[#  20]
          +0.001*[#  21]
    |psi|^2 = 1.002
==== e(  27) =    16.65438 eV ==== 
     psi = 0.254*[#  18]+0.250*[#  31]+0.129*[#   1]+0.129*[#   5]+0.043*[#  26]
          +0.043*[#  29]+0.035*[#   2]+0.035*[#   3]+0.035*[#   4]+0.035*[#   6]
          +0.035*[#   7]+0.035*[#   8]+0.010*[#  19]+0.010*[#  20]+0.010*[#  21]
          +0.006*[#  32]+0.006*[#  33]+0.006*[#  34]
    |psi|^2 = 1.108
==== e(  28) =    20.50176 eV ==== 
     psi = 0.109*[#   1]+0.109*[#   5]+0.074*[#  19]+0.074*[#  20]+0.074*[#  21]
          +0.073*[#  32]+0.073*[#  33]+0.073*[#  34]+0.005*[#   2]+0.005*[#   3]
          +0.005*[#   4]+0.005*[#   6]+0.005*[#   7]+0.005*[#   8]+0.004*[#  26]
          +0.004*[#  29]
    |psi|^2 = 0.703
==== e(  29) =    24.59374 eV ==== 
     psi = 0.354*[#  31]+0.340*[#  18]+0.043*[#   2]+0.043*[#   3]+0.043*[#   4]
          +0.043*[#   6]+0.043*[#   7]+0.043*[#   8]+0.002*[#   9]+0.002*[#  22]
          
    |psi|^2 = 0.961
==== e(  30) =    27.86708 eV ==== 
     psi = 0.153*[#  19]+0.153*[#  20]+0.153*[#  21]+0.140*[#  32]+0.140*[#  33]
          +0.140*[#  34]+0.010*[#  18]+0.009*[#  31]+0.003*[#   2]+0.003*[#   3]
          +0.003*[#   4]+0.003*[#   6]+0.003*[#   7]+0.003*[#   8]
    |psi|^2 = 0.920

 k =   0.2500000000 -0.0833333333 -0.0833333333
==== e(   1) =   -90.51495 eV ==== 
     psi = 0.988*[#   9]+0.002*[#  19]+0.002*[#  20]+0.002*[#  21]
    |psi|^2 = 1.000
==== e(   2) =   -88.26542 eV ==== 
     psi = 0.988*[#  22]+0.002*[#  32]+0.002*[#  33]+0.002*[#  34]+0.002*[#  19]
          +0.002*[#  20]+0.002*[#  21]
    |psi|^2 = 1.005
==== e(   3) =   -50.89761 eV ==== 
     psi = 0.221*[#  10]+0.221*[#  11]+0.221*[#  12]
    |psi|^2 = 0.666
==== e(   4) =   -50.88657 eV ==== 
     psi = 0.278*[#  10]+0.278*[#  11]+0.278*[#  12]+0.001*[#  32]+0.001*[#  33]
          +0.001*[#  34]
    |psi|^2 = 0.843
==== e(   5) =   -50.88228 eV ==== 
     psi = 0.333*[#  10]+0.333*[#  11]+0.333*[#  12]
    |psi|^2 = 1.000
==== e(   6) =   -48.71736 eV ==== 
     psi = 0.220*[#  23]+0.220*[#  24]+0.220*[#  25]
    |psi|^2 = 0.663
==== e(   7) =   -48.70860 eV ==== 
     psi = 0.391*[#  23]+0.391*[#  24]+0.391*[#  25]
    |psi|^2 = 1.174
==== e(   8) =   -48.70369 eV ==== 
     psi = 0.275*[#  23]+0.275*[#  24]+0.275*[#  25]
    |psi|^2 = 0.825
==== e(   9) =    -5.35603 eV ==== 
     psi = 0.333*[#   1]+0.333*[#   5]+0.106*[#  18]+0.105*[#  31]+0.019*[#  19]
          +0.019*[#  20]+0.019*[#  21]+0.019*[#  32]+0.019*[#  33]+0.019*[#  34]
          +0.002*[#   9]+0.002*[#  22]
    |psi|^2 = 1.000
==== e(  10) =    -4.15643 eV ==== 
     psi = 0.383*[#   1]+0.383*[#   5]+0.037*[#  19]+0.037*[#  20]+0.037*[#  21]
          +0.037*[#  32]+0.037*[#  33]+0.037*[#  34]+0.005*[#  13]+0.005*[#  16]
          +0.002*[#  26]+0.002*[#  29]
    |psi|^2 = 1.006
==== e(  11) =     6.14393 eV ==== 
     psi = 0.085*[#  31]+0.079*[#  18]+0.058*[#  14]+0.058*[#  15]+0.058*[#  17]
          +0.050*[#   2]+0.050*[#   3]+0.050*[#   4]+0.050*[#   6]+0.050*[#   7]
          +0.050*[#   8]+0.031*[#  27]+0.031*[#  28]+0.031*[#  30]+0.022*[#  19]
          +0.022*[#  20]+0.022*[#  21]+0.022*[#  32]+0.022*[#  33]+0.022*[#  34]
          +0.008*[#  13]+0.008*[#  16]+0.002*[#  22]+0.001*[#   9]
    |psi|^2 = 0.892
==== e(  12) =     7.38984 eV ==== 
     psi = 0.273*[#  13]+0.273*[#  16]+0.046*[#   2]+0.046*[#   3]+0.046*[#   4]
          +0.046*[#   6]+0.046*[#   7]+0.046*[#   8]+0.022*[#  14]+0.022*[#  15]
          +0.022*[#  17]+0.015*[#  19]+0.015*[#  20]+0.015*[#  21]+0.014*[#  32]
          +0.014*[#  33]+0.014*[#  34]+0.011*[#  27]+0.011*[#  28]+0.011*[#  30]
          +0.002*[#  18]+0.002*[#  26]+0.002*[#  29]
    |psi|^2 = 1.016
==== e(  13) =     7.53791 eV ==== 
     psi = 0.341*[#  13]+0.341*[#  16]+0.044*[#   2]+0.044*[#   3]+0.044*[#   4]
          +0.044*[#   6]+0.044*[#   7]+0.044*[#   8]+0.007*[#  26]+0.007*[#  29]
          +0.005*[#  27]+0.005*[#  28]+0.005*[#  30]+0.005*[#  14]+0.005*[#  15]
          +0.005*[#  17]+0.002*[#  32]+0.002*[#  33]+0.002*[#  34]
    |psi|^2 = 0.998
==== e(  14) =     8.77387 eV ==== 
     psi = 0.210*[#  14]+0.210*[#  15]+0.210*[#  17]+0.028*[#  13]+0.028*[#  16]
          +0.027*[#   2]+0.027*[#   3]+0.027*[#   4]+0.027*[#   6]+0.027*[#   7]
          +0.027*[#   8]+0.017*[#  18]+0.015*[#  27]+0.015*[#  28]+0.015*[#  30]
          +0.007*[#  31]+0.007*[#  26]+0.007*[#  29]+0.006*[#   1]+0.006*[#   5]
          +0.002*[#  32]+0.002*[#  33]+0.002*[#  34]
    |psi|^2 = 0.953
==== e(  15) =     9.18166 eV ==== 
     psi = 0.271*[#  14]+0.271*[#  15]+0.271*[#  17]+0.020*[#  27]+0.020*[#  28]
          +0.020*[#  30]+0.014*[#   2]+0.014*[#   3]+0.014*[#   4]+0.014*[#   6]
          +0.014*[#   7]+0.014*[#   8]+0.007*[#  13]+0.007*[#  16]+0.003*[#  26]
          +0.003*[#  29]+0.002*[#  32]+0.002*[#  33]+0.002*[#  34]+0.001*[#  19]
          +0.001*[#  20]+0.001*[#  21]
    |psi|^2 = 0.986
==== e(  16) =     9.47573 eV ==== 
     psi = 0.208*[#  14]+0.208*[#  15]+0.208*[#  17]+0.090*[#  27]+0.090*[#  28]
          +0.090*[#  30]+0.030*[#   2]+0.030*[#   3]+0.030*[#   4]+0.030*[#   6]
          +0.030*[#   7]+0.030*[#   8]+0.013*[#  18]+0.003*[#  26]+0.003*[#  29]
          +0.001*[#   1]+0.001*[#   5]
    |psi|^2 = 1.102
==== e(  17) =     9.75767 eV ==== 
     psi = 0.151*[#  27]+0.151*[#  28]+0.151*[#  30]+0.059*[#  13]+0.059*[#  16]
          +0.048*[#   2]+0.048*[#   3]+0.048*[#   4]+0.048*[#   6]+0.048*[#   7]
          +0.048*[#   8]+0.024*[#  26]+0.024*[#  29]+0.013*[#  14]+0.013*[#  15]
          +0.013*[#  17]+0.007*[#  19]+0.007*[#  20]+0.007*[#  21]+0.005*[#  32]
          +0.005*[#  33]+0.005*[#  34]+0.004*[#   1]+0.004*[#   5]
    |psi|^2 = 0.994
==== e(  18) =    10.64183 eV ==== 
     psi = 0.265*[#  27]+0.265*[#  28]+0.265*[#  30]+0.040*[#  13]+0.040*[#  16]
          +0.030*[#   2]+0.030*[#   3]+0.030*[#   4]+0.030*[#   6]+0.030*[#   7]
          +0.030*[#   8]+0.022*[#  14]+0.022*[#  15]+0.022*[#  17]+0.005*[#  32]
          +0.005*[#  33]+0.005*[#  34]+0.004*[#  19]+0.004*[#  20]+0.004*[#  21]
          +0.002*[#  26]+0.002*[#  29]
    |psi|^2 = 1.149
==== e(  19) =    10.77981 eV ==== 
     psi = 0.083*[#  14]+0.083*[#  15]+0.083*[#  17]+0.073*[#   2]+0.073*[#   3]
          +0.073*[#   4]+0.073*[#   6]+0.073*[#   7]+0.073*[#   8]+0.036*[#  27]
          +0.036*[#  28]+0.036*[#  30]+0.034*[#  31]+0.026*[#  18]+0.021*[#  26]
          +0.021*[#  29]+0.019*[#  13]+0.019*[#  16]+0.018*[#   1]+0.018*[#   5]
          +0.002*[#  32]+0.002*[#  33]+0.002*[#  34]
    |psi|^2 = 0.982
==== e(  20) =    11.45598 eV ==== 
     psi = 0.073*[#  26]+0.073*[#  29]+0.055*[#   2]+0.055*[#   3]+0.055*[#   4]
          +0.055*[#   6]+0.055*[#   7]+0.055*[#   8]+0.034*[#  14]+0.034*[#  15]
          +0.034*[#  17]+0.030*[#  13]+0.030*[#  16]+0.003*[#  19]+0.003*[#  20]
          +0.003*[#  21]
    |psi|^2 = 0.654
==== e(  21) =    11.50046 eV ==== 
     psi = 0.170*[#  27]+0.170*[#  28]+0.170*[#  30]+0.050*[#  14]+0.050*[#  15]
          +0.050*[#  17]+0.045*[#   2]+0.045*[#   3]+0.045*[#   4]+0.045*[#   6]
          +0.045*[#   7]+0.045*[#   8]+0.034*[#  31]+0.009*[#  18]+0.005*[#  26]
          +0.005*[#  29]+0.002*[#  13]+0.002*[#  16]+0.001*[#   1]+0.001*[#   5]
          +0.001*[#  19]+0.001*[#  20]+0.001*[#  21]
    |psi|^2 = 0.997
==== e(  22) =    11.89181 eV ==== 
     psi = 0.140*[#  27]+0.140*[#  28]+0.140*[#  30]+0.052*[#   2]+0.052*[#   3]
          +0.052*[#   4]+0.052*[#   6]+0.052*[#   7]+0.052*[#   8]+0.018*[#  18]
          +0.014*[#  26]+0.014*[#  29]+0.003*[#   1]+0.003*[#   5]+0.003*[#  14]
          +0.003*[#  15]+0.003*[#  17]+0.002*[#  19]+0.002*[#  20]+0.002*[#  21]
          +0.001*[#  32]+0.001*[#  33]+0.001*[#  34]
    |psi|^2 = 0.803
==== e(  23) =    12.53473 eV ==== 
     psi = 0.087*[#   2]+0.087*[#   3]+0.087*[#   4]+0.087*[#   6]+0.087*[#   7]
          +0.087*[#   8]+0.069*[#  13]+0.069*[#  16]+0.040*[#  27]+0.040*[#  28]
          +0.040*[#  30]+0.039*[#  26]+0.039*[#  29]+0.005*[#  32]+0.005*[#  33]
          +0.005*[#  34]
    |psi|^2 = 0.876
==== e(  24) =    12.59067 eV ==== 
     psi = 0.100*[#   2]+0.100*[#   3]+0.100*[#   4]+0.100*[#   6]+0.100*[#   7]
          +0.100*[#   8]+0.098*[#  13]+0.098*[#  16]+0.015*[#  31]+0.014*[#  14]
          +0.014*[#  15]+0.014*[#  17]+0.012*[#  27]+0.012*[#  28]+0.012*[#  30]
          +0.012*[#   1]+0.012*[#   5]+0.007*[#  32]+0.007*[#  33]+0.007*[#  34]
          +0.005*[#  19]+0.005*[#  20]+0.005*[#  21]+0.004*[#  26]+0.004*[#  29]
          +0.003*[#  18]
    |psi|^2 = 0.966
==== e(  25) =    16.02603 eV ==== 
     psi = 0.387*[#  26]+0.387*[#  29]+0.035*[#  18]+0.021*[#   1]+0.021*[#   5]
          +0.017*[#   2]+0.017*[#   3]+0.017*[#   4]+0.017*[#   6]+0.017*[#   7]
          +0.017*[#   8]+0.008*[#  31]+0.005*[#  19]+0.005*[#  20]+0.005*[#  21]
          +0.004*[#  32]+0.004*[#  33]+0.004*[#  34]+0.003*[#  13]+0.003*[#  16]
          +0.001*[#  27]+0.001*[#  28]+0.001*[#  30]
    |psi|^2 = 0.997
==== e(  26) =    16.42888 eV ==== 
     psi = 0.375*[#  26]+0.375*[#  29]+0.028*[#   2]+0.028*[#   3]+0.028*[#   4]
          +0.028*[#   6]+0.028*[#   7]+0.028*[#   8]+0.011*[#  13]+0.011*[#  16]
          +0.004*[#  32]+0.004*[#  33]+0.004*[#  34]+0.003*[#  19]+0.003*[#  20]
          +0.003*[#  21]
    |psi|^2 = 0.962
==== e(  27) =    17.82164 eV ==== 
     psi = 0.203*[#  18]+0.202*[#  31]+0.113*[#   1]+0.113*[#   5]+0.047*[#   2]
          +0.047*[#   3]+0.047*[#   4]+0.047*[#   6]+0.047*[#   7]+0.047*[#   8]
          +0.023*[#  19]+0.023*[#  20]+0.023*[#  21]+0.021*[#  26]+0.021*[#  29]
          +0.019*[#  32]+0.019*[#  33]+0.019*[#  34]
    |psi|^2 = 1.085
==== e(  28) =    21.55526 eV ==== 
     psi = 0.086*[#   1]+0.086*[#   5]+0.068*[#  19]+0.068*[#  20]+0.068*[#  21]
          +0.068*[#  32]+0.068*[#  33]+0.068*[#  34]+0.012*[#   2]+0.012*[#   3]
          +0.012*[#   4]+0.012*[#   6]+0.012*[#   7]+0.012*[#   8]+0.005*[#  26]
          +0.005*[#  29]+0.001*[#  13]+0.001*[#  16]+0.001*[#  27]+0.001*[#  28]
          +0.001*[#  30]
    |psi|^2 = 0.673
==== e(  29) =    24.29486 eV ==== 
     psi = 0.365*[#  31]+0.355*[#  18]+0.039*[#   2]+0.039*[#   3]+0.039*[#   4]
          +0.039*[#   6]+0.039*[#   7]+0.039*[#   8]+0.002*[#   9]+0.002*[#  32]
          +0.002*[#  33]+0.002*[#  34]+0.002*[#  22]+0.001*[#  19]+0.001*[#  20]
          +0.001*[#  21]
    |psi|^2 = 0.971
==== e(  30) =    26.69597 eV ==== 
     psi = 0.137*[#  19]+0.137*[#  20]+0.137*[#  21]+0.126*[#  32]+0.126*[#  33]
          +0.126*[#  34]+0.018*[#  18]+0.015*[#  31]+0.012*[#   2]+0.012*[#   3]
          +0.012*[#   4]+0.012*[#   6]+0.012*[#   7]+0.012*[#   8]+0.002*[#  27]
          +0.002*[#  28]+0.002*[#  30]+0.001*[#  14]+0.001*[#  15]+0.001*[#  17]
          +0.001*[#   1]+0.001*[#   5]
    |psi|^2 = 0.908

 k =   0.3750000000 -0.1250000000 -0.1250000000
==== e(   1) =   -90.51443 eV ==== 
     psi = 0.987*[#   9]+0.002*[#  19]+0.002*[#  20]+0.002*[#  21]
    |psi|^2 = 1.000
==== e(   2) =   -88.26483 eV ==== 
     psi = 0.987*[#  22]+0.003*[#  32]+0.003*[#  33]+0.003*[#  34]+0.002*[#  19]
          +0.002*[#  20]+0.002*[#  21]
    |psi|^2 = 1.006
==== e(   3) =   -50.89685 eV ==== 
     psi = 0.218*[#  10]+0.218*[#  11]+0.218*[#  12]
    |psi|^2 = 0.656
==== e(   4) =   -50.89227 eV ==== 
     psi = 0.282*[#  10]+0.282*[#  11]+0.282*[#  12]+0.001*[#  32]+0.001*[#  33]
          +0.001*[#  34]
    |psi|^2 = 0.854
==== e(   5) =   -50.88373 eV ==== 
     psi = 0.333*[#  10]+0.333*[#  11]+0.333*[#  12]
    |psi|^2 = 1.000
==== e(   6) =   -48.71658 eV ==== 
     psi = 0.206*[#  23]+0.206*[#  24]+0.206*[#  25]
    |psi|^2 = 0.620
==== e(   7) =   -48.71509 eV ==== 
     psi = 0.419*[#  23]+0.419*[#  24]+0.419*[#  25]
    |psi|^2 = 1.260
==== e(   8) =   -48.70534 eV ==== 
     psi = 0.246*[#  23]+0.246*[#  24]+0.246*[#  25]
    |psi|^2 = 0.740
==== e(   9) =    -5.04760 eV ==== 
     psi = 0.340*[#   1]+0.340*[#   5]+0.069*[#  18]+0.068*[#  31]+0.029*[#  32]
          +0.029*[#  33]+0.029*[#  34]+0.028*[#  19]+0.028*[#  20]+0.028*[#  21]
          +0.002*[#   9]+0.002*[#  22]+0.002*[#  13]+0.002*[#  16]
    |psi|^2 = 1.000
==== e(  10) =    -4.13059 eV ==== 
     psi = 0.396*[#   1]+0.396*[#   5]+0.039*[#  19]+0.039*[#  20]+0.039*[#  21]
          +0.038*[#  32]+0.038*[#  33]+0.038*[#  34]+0.009*[#  13]+0.009*[#  16]
          +0.004*[#  26]+0.004*[#  29]
    |psi|^2 = 1.052
==== e(  11) =     6.56407 eV ==== 
     psi = 0.070*[#  31]+0.063*[#  13]+0.063*[#  16]+0.055*[#  14]+0.055*[#  15]
          +0.055*[#  17]+0.044*[#  18]+0.042*[#   2]+0.042*[#   3]+0.042*[#   4]
          +0.042*[#   6]+0.042*[#   7]+0.042*[#   8]+0.024*[#  27]+0.024*[#  28]
          +0.024*[#  30]+0.022*[#  32]+0.022*[#  33]+0.022*[#  34]+0.021*[#  19]
          +0.021*[#  20]+0.021*[#  21]+0.002*[#  22]
    |psi|^2 = 0.864
==== e(  12) =     7.43998 eV ==== 
     psi = 0.171*[#  13]+0.171*[#  16]+0.062*[#   2]+0.062*[#   3]+0.062*[#   4]
          +0.062*[#   6]+0.062*[#   7]+0.062*[#   8]+0.027*[#  27]+0.027*[#  28]
          +0.027*[#  30]+0.026*[#  19]+0.026*[#  20]+0.026*[#  21]+0.023*[#  14]
          +0.023*[#  15]+0.023*[#  17]+0.016*[#  18]+0.015*[#  32]+0.015*[#  33]
          +0.015*[#  34]+0.003*[#   1]+0.003*[#   5]
    |psi|^2 = 1.012
==== e(  13) =     7.60099 eV ==== 
     psi = 0.351*[#  13]+0.351*[#  16]+0.044*[#   2]+0.044*[#   3]+0.044*[#   4]
          +0.044*[#   6]+0.044*[#   7]+0.044*[#   8]+0.004*[#  26]+0.004*[#  29]
          +0.004*[#  27]+0.004*[#  28]+0.004*[#  30]+0.004*[#  32]+0.004*[#  33]
          +0.004*[#  34]
    |psi|^2 = 0.999
==== e(  14) =     8.04963 eV ==== 
     psi = 0.149*[#  14]+0.149*[#  15]+0.149*[#  17]+0.051*[#   2]+0.051*[#   3]
          +0.051*[#   4]+0.051*[#   6]+0.051*[#   7]+0.051*[#   8]+0.041*[#  18]
          +0.012*[#  13]+0.012*[#  16]+0.012*[#  26]+0.012*[#  29]+0.012*[#   1]
          +0.012*[#   5]+0.012*[#  31]+0.011*[#  32]+0.011*[#  33]+0.011*[#  34]
          +0.004*[#  27]+0.004*[#  28]+0.004*[#  30]+0.001*[#  19]+0.001*[#  20]
          +0.001*[#  21]
    |psi|^2 = 0.928
==== e(  15) =     9.09375 eV ==== 
     psi = 0.129*[#  27]+0.129*[#  28]+0.129*[#  30]+0.046*[#  13]+0.046*[#  16]
          +0.045*[#   2]+0.045*[#   3]+0.045*[#   4]+0.045*[#   6]+0.045*[#   7]
          +0.045*[#   8]+0.032*[#  14]+0.032*[#  15]+0.032*[#  17]+0.018*[#  26]
          +0.018*[#  29]+0.009*[#  31]+0.008*[#  32]+0.008*[#  33]+0.008*[#  34]
          +0.007*[#  19]+0.007*[#  20]+0.007*[#  21]+0.004*[#   1]+0.004*[#   5]
          +0.002*[#  18]
    |psi|^2 = 0.945
==== e(  16) =     9.17851 eV ==== 
     psi = 0.247*[#  14]+0.247*[#  15]+0.247*[#  17]+0.054*[#   2]+0.054*[#   3]
          +0.054*[#   4]+0.054*[#   6]+0.054*[#   7]+0.054*[#   8]+0.019*[#  27]
          +0.019*[#  28]+0.019*[#  30]+0.010*[#  32]+0.010*[#  33]+0.010*[#  34]
          +0.007*[#  26]+0.007*[#  29]+0.004*[#  19]+0.004*[#  20]+0.004*[#  21]
          
    |psi|^2 = 1.179
==== e(  17) =     9.50272 eV ==== 
     psi = 0.197*[#  14]+0.197*[#  15]+0.197*[#  17]+0.064*[#  27]+0.064*[#  28]
          +0.064*[#  30]+0.041*[#  13]+0.041*[#  16]+0.016*[#   2]+0.016*[#   3]
          +0.016*[#   4]+0.016*[#   6]+0.016*[#   7]+0.016*[#   8]+0.013*[#  18]
          +0.004*[#   1]+0.004*[#   5]+0.002*[#  19]+0.002*[#  20]+0.002*[#  21]
          +0.001*[#  32]+0.001*[#  33]+0.001*[#  34]
    |psi|^2 = 0.995
==== e(  18) =    10.67657 eV ==== 
     psi = 0.130*[#  14]+0.130*[#  15]+0.130*[#  17]+0.049*[#   2]+0.049*[#   3]
          +0.049*[#   4]+0.049*[#   6]+0.049*[#   7]+0.049*[#   8]+0.040*[#  27]
          +0.040*[#  28]+0.040*[#  30]+0.034*[#  13]+0.034*[#  16]+0.023*[#  18]
          +0.021*[#  31]+0.016*[#   1]+0.016*[#   5]+0.015*[#  26]+0.015*[#  29]
          +0.006*[#  32]+0.006*[#  33]+0.006*[#  34]+0.002*[#  19]+0.002*[#  20]
          +0.002*[#  21]
    |psi|^2 = 1.006
==== e(  19) =    10.69101 eV ==== 
     psi = 0.222*[#  27]+0.222*[#  28]+0.222*[#  30]+0.058*[#  14]+0.058*[#  15]
          +0.058*[#  17]+0.015*[#   2]+0.015*[#   3]+0.015*[#   4]+0.015*[#   6]
          +0.015*[#   7]+0.015*[#   8]+0.007*[#  13]+0.007*[#  16]+0.004*[#  26]
          +0.004*[#  29]+0.001*[#  19]+0.001*[#  20]+0.001*[#  21]
    |psi|^2 = 0.956
==== e(  20) =    11.28643 eV ==== 
     psi = 0.082*[#   2]+0.082*[#   3]+0.082*[#   4]+0.082*[#   6]+0.082*[#   7]
          +0.082*[#   8]+0.074*[#  26]+0.074*[#  29]+0.055*[#  13]+0.055*[#  16]
          +0.049*[#  27]+0.049*[#  28]+0.049*[#  30]+0.023*[#  14]+0.023*[#  15]
          +0.023*[#  17]+0.006*[#  32]+0.006*[#  33]+0.006*[#  34]+0.003*[#  19]
          +0.003*[#  20]+0.003*[#  21]
    |psi|^2 = 0.995
==== e(  21) =    11.35865 eV ==== 
     psi = 0.169*[#  27]+0.169*[#  28]+0.169*[#  30]+0.049*[#  14]+0.049*[#  15]
          +0.049*[#  17]+0.044*[#   2]+0.044*[#   3]+0.044*[#   4]+0.044*[#   6]
          +0.044*[#   7]+0.044*[#   8]+0.042*[#  31]+0.007*[#  13]+0.007*[#  16]
          +0.005*[#  18]+0.004*[#  26]+0.004*[#  29]+0.003*[#   1]+0.003*[#   5]
          
    |psi|^2 = 0.996
==== e(  22) =    11.94198 eV ==== 
     psi = 0.199*[#  27]+0.199*[#  28]+0.199*[#  30]+0.045*[#   2]+0.045*[#   3]
          +0.045*[#   4]+0.045*[#   6]+0.045*[#   7]+0.045*[#   8]+0.012*[#  18]
          +0.007*[#  26]+0.007*[#  29]+0.005*[#  19]+0.005*[#  20]+0.005*[#  21]
          +0.005*[#  31]+0.005*[#   1]+0.005*[#   5]+0.004*[#  14]+0.004*[#  15]
          +0.004*[#  17]+0.003*[#  13]+0.003*[#  16]+0.002*[#  32]+0.002*[#  33]
          +0.002*[#  34]
    |psi|^2 = 0.945
==== e(  23) =    12.36891 eV ==== 
     psi = 0.107*[#  13]+0.107*[#  16]+0.085*[#   2]+0.085*[#   3]+0.085*[#   4]
          +0.085*[#   6]+0.085*[#   7]+0.085*[#   8]+0.020*[#  14]+0.020*[#  15]
          +0.020*[#  17]+0.014*[#  31]+0.012*[#   1]+0.012*[#   5]+0.011*[#  26]
          +0.011*[#  29]+0.005*[#  19]+0.005*[#  20]+0.005*[#  21]+0.005*[#  32]
          +0.005*[#  33]+0.005*[#  34]+0.001*[#  18]
    |psi|^2 = 0.874
==== e(  24) =    12.66838 eV ==== 
     psi = 0.082*[#   2]+0.082*[#   3]+0.082*[#   4]+0.082*[#   6]+0.082*[#   7]
          +0.082*[#   8]+0.079*[#  13]+0.079*[#  16]+0.038*[#  27]+0.038*[#  28]
          +0.038*[#  30]+0.015*[#  26]+0.015*[#  29]+0.007*[#  32]+0.007*[#  33]
          +0.007*[#  34]+0.005*[#  19]+0.005*[#  20]+0.005*[#  21]+0.003*[#  14]
          +0.003*[#  15]+0.003*[#  17]
    |psi|^2 = 0.844
==== e(  25) =    15.98030 eV ==== 
     psi = 0.401*[#  26]+0.401*[#  29]+0.042*[#  18]+0.023*[#   1]+0.023*[#   5]
          +0.013*[#   2]+0.013*[#   3]+0.013*[#   4]+0.013*[#   6]+0.013*[#   7]
          +0.013*[#   8]+0.005*[#  31]+0.004*[#  19]+0.004*[#  20]+0.004*[#  21]
          +0.003*[#  32]+0.003*[#  33]+0.003*[#  34]
    |psi|^2 = 0.998
==== e(  26) =    16.35469 eV ==== 
     psi = 0.393*[#  26]+0.393*[#  29]+0.021*[#   2]+0.021*[#   3]+0.021*[#   4]
          +0.021*[#   6]+0.021*[#   7]+0.021*[#   8]+0.008*[#  13]+0.008*[#  16]
          +0.003*[#  32]+0.003*[#  33]+0.003*[#  34]+0.002*[#  19]+0.002*[#  20]
          +0.002*[#  21]
    |psi|^2 = 0.941
==== e(  27) =    19.15857 eV ==== 
     psi = 0.163*[#  18]+0.161*[#  31]+0.093*[#   1]+0.093*[#   5]+0.054*[#   2]
          +0.054*[#   3]+0.054*[#   4]+0.054*[#   6]+0.054*[#   7]+0.054*[#   8]
          +0.032*[#  19]+0.032*[#  20]+0.032*[#  21]+0.028*[#  32]+0.028*[#  33]
          +0.028*[#  34]+0.019*[#  26]+0.019*[#  29]+0.002*[#  13]+0.002*[#  16]
          
    |psi|^2 = 1.058
==== e(  28) =    22.76097 eV ==== 
     psi = 0.068*[#   1]+0.068*[#   5]+0.064*[#  19]+0.064*[#  20]+0.064*[#  21]
          +0.064*[#  32]+0.064*[#  33]+0.064*[#  34]+0.012*[#   2]+0.012*[#   3]
          +0.012*[#   4]+0.012*[#   6]+0.012*[#   7]+0.012*[#   8]+0.003*[#  26]
          +0.003*[#  29]+0.002*[#  27]+0.002*[#  28]+0.002*[#  30]+0.002*[#  14]
          +0.002*[#  15]+0.002*[#  17]+0.001*[#  13]+0.001*[#  16]
    |psi|^2 = 0.614
==== e(  29) =    23.88574 eV ==== 
     psi = 0.387*[#  31]+0.386*[#  18]+0.033*[#   2]+0.033*[#   3]+0.033*[#   4]
          +0.033*[#   6]+0.033*[#   7]+0.033*[#   8]+0.002*[#   9]+0.001*[#  22]
          +0.001*[#  26]+0.001*[#  29]
    |psi|^2 = 0.983
==== e(  30) =    25.64117 eV ==== 
     psi = 0.123*[#  19]+0.123*[#  20]+0.123*[#  21]+0.115*[#  32]+0.115*[#  33]
          +0.115*[#  34]+0.028*[#   2]+0.028*[#   3]+0.028*[#   4]+0.028*[#   6]
          +0.028*[#   7]+0.028*[#   8]+0.007*[#  18]+0.005*[#  31]+0.003*[#  27]
          +0.003*[#  28]+0.003*[#  30]+0.002*[#   1]+0.002*[#   5]+0.002*[#  14]
          +0.002*[#  15]+0.002*[#  17]
    |psi|^2 = 0.911

 k =   0.5000000000 -0.1666666667 -0.1666666667
==== e(   1) =   -90.51398 eV ==== 
     psi = 0.989*[#   9]+0.001*[#  19]+0.001*[#  20]+0.001*[#  21]
    |psi|^2 = 1.000
==== e(   2) =   -88.26429 eV ==== 
     psi = 0.989*[#  22]+0.002*[#  32]+0.002*[#  33]+0.002*[#  34]+0.002*[#  19]
          +0.002*[#  20]+0.002*[#  21]
    |psi|^2 = 1.005
==== e(   3) =   -50.89794 eV ==== 
     psi = 0.261*[#  10]+0.261*[#  11]+0.261*[#  12]
    |psi|^2 = 0.788
==== e(   4) =   -50.89606 eV ==== 
     psi = 0.238*[#  10]+0.238*[#  11]+0.238*[#  12]+0.001*[#  32]+0.001*[#  33]
          +0.001*[#  34]
    |psi|^2 = 0.721
==== e(   5) =   -50.88517 eV ==== 
     psi = 0.333*[#  10]+0.333*[#  11]+0.333*[#  12]
    |psi|^2 = 1.000
==== e(   6) =   -48.72159 eV ==== 
     psi = 0.271*[#  23]+0.271*[#  24]+0.271*[#  25]
    |psi|^2 = 0.814
==== e(   7) =   -48.71576 eV ==== 
     psi = 0.290*[#  23]+0.290*[#  24]+0.290*[#  25]
    |psi|^2 = 0.873
==== e(   8) =   -48.70698 eV ==== 
     psi = 0.375*[#  23]+0.375*[#  24]+0.375*[#  25]
    |psi|^2 = 1.127
==== e(   9) =    -4.71549 eV ==== 
     psi = 0.356*[#   1]+0.356*[#   5]+0.040*[#  18]+0.038*[#  31]+0.035*[#  32]
          +0.035*[#  33]+0.035*[#  34]+0.028*[#  19]+0.028*[#  20]+0.028*[#  21]
          +0.005*[#  13]+0.005*[#  16]+0.001*[#  22]+0.001*[#   9]
    |psi|^2 = 1.000
==== e(  10) =    -4.10021 eV ==== 
     psi = 0.406*[#   1]+0.406*[#   5]+0.037*[#  19]+0.037*[#  20]+0.037*[#  21]
          +0.033*[#  32]+0.033*[#  33]+0.033*[#  34]+0.011*[#  13]+0.011*[#  16]
          +0.006*[#  26]+0.006*[#  29]+0.001*[#  31]
    |psi|^2 = 1.060
==== e(  11) =     6.76351 eV ==== 
     psi = 0.142*[#  13]+0.142*[#  16]+0.068*[#  31]+0.045*[#   2]+0.045*[#   3]
          +0.045*[#   4]+0.045*[#   6]+0.045*[#   7]+0.045*[#   8]+0.035*[#  14]
          +0.035*[#  15]+0.035*[#  17]+0.020*[#  19]+0.020*[#  20]+0.020*[#  21]
          +0.019*[#  27]+0.019*[#  28]+0.019*[#  30]+0.017*[#  32]+0.017*[#  33]
          +0.017*[#  34]+0.007*[#  18]+0.002*[#  22]+0.002*[#   1]+0.002*[#   5]
          
    |psi|^2 = 0.905
==== e(  12) =     7.32705 eV ==== 
     psi = 0.106*[#  14]+0.106*[#  15]+0.106*[#  17]+0.086*[#  18]+0.056*[#   2]
          +0.056*[#   3]+0.056*[#   4]+0.056*[#   6]+0.056*[#   7]+0.056*[#   8]
          +0.017*[#  32]+0.017*[#  33]+0.017*[#  34]+0.013*[#  13]+0.013*[#  16]
          +0.012*[#   1]+0.012*[#   5]+0.011*[#  26]+0.011*[#  29]+0.006*[#  27]
          +0.006*[#  28]+0.006*[#  30]+0.004*[#  31]+0.002*[#   9]
    |psi|^2 = 0.888
==== e(  13) =     7.61508 eV ==== 
     psi = 0.345*[#  13]+0.345*[#  16]+0.044*[#   2]+0.044*[#   3]+0.044*[#   4]
          +0.044*[#   6]+0.044*[#   7]+0.044*[#   8]+0.006*[#  32]+0.006*[#  33]
          +0.006*[#  34]+0.005*[#  14]+0.005*[#  15]+0.005*[#  17]+0.002*[#  27]
          +0.002*[#  28]+0.002*[#  30]+0.002*[#  26]+0.002*[#  29]
    |psi|^2 = 0.999
==== e(  14) =     7.73141 eV ==== 
     psi = 0.075*[#   2]+0.075*[#   3]+0.075*[#   4]+0.075*[#   6]+0.075*[#   7]
          +0.075*[#   8]+0.055*[#  14]+0.055*[#  15]+0.055*[#  17]+0.045*[#  19]
          +0.045*[#  20]+0.045*[#  21]+0.043*[#  27]+0.043*[#  28]+0.043*[#  30]
          +0.028*[#  32]+0.028*[#  33]+0.028*[#  34]+0.007*[#  13]+0.007*[#  16]
          +0.007*[#  18]+0.002*[#  26]+0.002*[#  29]+0.001*[#   1]+0.001*[#   5]
          
    |psi|^2 = 0.993
==== e(  15) =     8.54851 eV ==== 
     psi = 0.097*[#  13]+0.097*[#  16]+0.092*[#  27]+0.092*[#  28]+0.092*[#  30]
          +0.033*[#   2]+0.033*[#   3]+0.033*[#   4]+0.033*[#   6]+0.033*[#   7]
          +0.033*[#   8]+0.026*[#  31]+0.026*[#  14]+0.026*[#  15]+0.026*[#  17]
          +0.013*[#  26]+0.013*[#  29]+0.006*[#  19]+0.006*[#  20]+0.006*[#  21]
          +0.005*[#   1]+0.005*[#   5]+0.002*[#  32]+0.002*[#  33]+0.002*[#  34]
          +0.001*[#  18]
    |psi|^2 = 0.837
==== e(  16) =     9.30646 eV ==== 
     psi = 0.213*[#  14]+0.213*[#  15]+0.213*[#  17]+0.093*[#   2]+0.093*[#   3]
          +0.093*[#   4]+0.093*[#   6]+0.093*[#   7]+0.093*[#   8]+0.049*[#  19]
          +0.049*[#  20]+0.049*[#  21]+0.029*[#  32]+0.029*[#  33]+0.029*[#  34]
          +0.021*[#  27]+0.021*[#  28]+0.021*[#  30]+0.014*[#  26]+0.014*[#  29]
          +0.007*[#  13]+0.007*[#  16]
    |psi|^2 = 1.537
==== e(  17) =     9.46476 eV ==== 
     psi = 0.211*[#  14]+0.211*[#  15]+0.211*[#  17]+0.056*[#  13]+0.056*[#  16]
          +0.043*[#  27]+0.043*[#  28]+0.043*[#  30]+0.014*[#   2]+0.014*[#   3]
          +0.014*[#   4]+0.014*[#   6]+0.014*[#   7]+0.014*[#   8]+0.014*[#  18]
          +0.006*[#   1]+0.006*[#   5]+0.002*[#  19]+0.002*[#  20]+0.002*[#  21]
          
    |psi|^2 = 0.994
==== e(  18) =    10.50950 eV ==== 
     psi = 0.113*[#  27]+0.113*[#  28]+0.113*[#  30]+0.104*[#  14]+0.104*[#  15]
          +0.104*[#  17]+0.027*[#   2]+0.027*[#   3]+0.027*[#   4]+0.027*[#   6]
          +0.027*[#   7]+0.027*[#   8]+0.025*[#  26]+0.025*[#  29]+0.005*[#  19]
          +0.005*[#  20]+0.005*[#  21]+0.003*[#  13]+0.003*[#  16]
    |psi|^2 = 0.883
==== e(  19) =    10.74691 eV ==== 
     psi = 0.149*[#  14]+0.149*[#  15]+0.149*[#  17]+0.067*[#  27]+0.067*[#  28]
          +0.067*[#  30]+0.054*[#   2]+0.054*[#   3]+0.054*[#   4]+0.054*[#   6]
          +0.054*[#   7]+0.054*[#   8]+0.026*[#  18]+0.021*[#  13]+0.021*[#  16]
          +0.008*[#   1]+0.008*[#   5]+0.008*[#  32]+0.008*[#  33]+0.008*[#  34]
          +0.008*[#  26]+0.008*[#  29]+0.003*[#  19]+0.003*[#  20]+0.003*[#  21]
          +0.003*[#  31]
    |psi|^2 = 1.110
==== e(  20) =    11.26437 eV ==== 
     psi = 0.147*[#  27]+0.147*[#  28]+0.147*[#  30]+0.056*[#  14]+0.056*[#  15]
          +0.056*[#  17]+0.040*[#  31]+0.030*[#   2]+0.030*[#   3]+0.030*[#   4]
          +0.030*[#   6]+0.030*[#   7]+0.030*[#   8]+0.010*[#  13]+0.010*[#  16]
          +0.005*[#  26]+0.005*[#  29]+0.004*[#   1]+0.004*[#   5]+0.003*[#  32]
          +0.003*[#  33]+0.003*[#  34]+0.001*[#  18]+0.001*[#  19]+0.001*[#  20]
          +0.001*[#  21]
    |psi|^2 = 0.879
==== e(  21) =    11.35461 eV ==== 
     psi = 0.164*[#  27]+0.164*[#  28]+0.164*[#  30]+0.049*[#   2]+0.049*[#   3]
          +0.049*[#   4]+0.049*[#   6]+0.049*[#   7]+0.049*[#   8]+0.046*[#  13]
          +0.046*[#  16]+0.045*[#  26]+0.045*[#  29]+0.004*[#  19]+0.004*[#  20]
          +0.004*[#  21]+0.003*[#  14]+0.003*[#  15]+0.003*[#  17]+0.002*[#  32]
          +0.002*[#  33]+0.002*[#  34]
    |psi|^2 = 0.998
==== e(  22) =    11.81044 eV ==== 
     psi = 0.191*[#  27]+0.191*[#  28]+0.191*[#  30]+0.041*[#  13]+0.041*[#  16]
          +0.037*[#   2]+0.037*[#   3]+0.037*[#   4]+0.037*[#   6]+0.037*[#   7]
          +0.037*[#   8]+0.020*[#  31]+0.010*[#  14]+0.010*[#  15]+0.010*[#  17]
          +0.009*[#   1]+0.009*[#   5]+0.008*[#  19]+0.008*[#  20]+0.008*[#  21]
          +0.003*[#  26]+0.003*[#  29]+0.001*[#  32]+0.001*[#  33]+0.001*[#  34]
          
    |psi|^2 = 0.981
==== e(  23) =    12.22822 eV ==== 
     psi = 0.090*[#  13]+0.090*[#  16]+0.056*[#   2]+0.056*[#   3]+0.056*[#   4]
          +0.056*[#   6]+0.056*[#   7]+0.056*[#   8]+0.046*[#  27]+0.046*[#  28]
          +0.046*[#  30]+0.025*[#  26]+0.025*[#  29]+0.013*[#  14]+0.013*[#  15]
          +0.013*[#  17]+0.012*[#  18]+0.009*[#   1]+0.009*[#   5]+0.005*[#  32]
          +0.005*[#  33]+0.005*[#  34]+0.003*[#  31]
    |psi|^2 = 0.795
==== e(  24) =    12.70991 eV ==== 
     psi = 0.094*[#  13]+0.094*[#  16]+0.088*[#   2]+0.088*[#   3]+0.088*[#   4]
          +0.088*[#   6]+0.088*[#   7]+0.088*[#   8]+0.031*[#  27]+0.031*[#  28]
          +0.031*[#  30]+0.008*[#  14]+0.008*[#  15]+0.008*[#  17]+0.008*[#  19]
          +0.008*[#  20]+0.008*[#  21]+0.008*[#  32]+0.008*[#  33]+0.008*[#  34]
          +0.004*[#  26]+0.004*[#  29]
    |psi|^2 = 0.890
==== e(  25) =    16.10723 eV ==== 
     psi = 0.404*[#  26]+0.404*[#  29]+0.031*[#  18]+0.024*[#   1]+0.024*[#   5]
          +0.014*[#   2]+0.014*[#   3]+0.014*[#   4]+0.014*[#   6]+0.014*[#   7]
          +0.014*[#   8]+0.006*[#  19]+0.006*[#  20]+0.006*[#  21]+0.002*[#  32]
          +0.002*[#  33]+0.002*[#  34]+0.001*[#  31]
    |psi|^2 = 0.998
==== e(  26) =    16.29564 eV ==== 
     psi = 0.409*[#  26]+0.409*[#  29]+0.018*[#   2]+0.018*[#   3]+0.018*[#   4]
          +0.018*[#   6]+0.018*[#   7]+0.018*[#   8]+0.004*[#  19]+0.004*[#  20]
          +0.004*[#  21]+0.004*[#  13]+0.004*[#  16]+0.001*[#  32]+0.001*[#  33]
          +0.001*[#  34]
    |psi|^2 = 0.951
==== e(  27) =    20.37350 eV ==== 
     psi = 0.155*[#  18]+0.143*[#  31]+0.075*[#   1]+0.075*[#   5]+0.055*[#   2]
          +0.055*[#   3]+0.055*[#   4]+0.055*[#   6]+0.055*[#   7]+0.055*[#   8]
          +0.035*[#  19]+0.035*[#  20]+0.035*[#  21]+0.033*[#  32]+0.033*[#  33]
          +0.033*[#  34]+0.016*[#  26]+0.016*[#  29]+0.003*[#  13]+0.003*[#  16]
          
    |psi|^2 = 1.023
==== e(  28) =    23.24546 eV ==== 
     psi = 0.275*[#  18]+0.269*[#  31]+0.032*[#   1]+0.032*[#   5]+0.029*[#  19]
          +0.029*[#  20]+0.029*[#  21]+0.025*[#  32]+0.025*[#  33]+0.025*[#  34]
          +0.002*[#   2]+0.002*[#   3]+0.002*[#   4]+0.002*[#   6]+0.002*[#   7]
          +0.002*[#   8]+0.002*[#   9]+0.001*[#  22]+0.001*[#  27]+0.001*[#  28]
          +0.001*[#  30]
    |psi|^2 = 0.789
==== e(  29) =    23.83771 eV ==== 
     psi = 0.136*[#  18]+0.128*[#  31]+0.064*[#  32]+0.064*[#  33]+0.064*[#  34]
          +0.059*[#  19]+0.059*[#  20]+0.059*[#  21]+0.036*[#   2]+0.036*[#   3]
          +0.036*[#   4]+0.036*[#   6]+0.036*[#   7]+0.036*[#   8]+0.027*[#   1]
          +0.027*[#   5]+0.003*[#  26]+0.003*[#  29]+0.002*[#  27]+0.002*[#  28]
          +0.002*[#  30]+0.002*[#  14]+0.002*[#  15]+0.002*[#  17]+0.001*[#  13]
          +0.001*[#  16]
    |psi|^2 = 0.926
==== e(  30) =    25.13587 eV ==== 
     psi = 0.114*[#  19]+0.114*[#  20]+0.114*[#  21]+0.108*[#  32]+0.108*[#  33]
          +0.108*[#  34]+0.042*[#   2]+0.042*[#   3]+0.042*[#   4]+0.042*[#   6]
          +0.042*[#   7]+0.042*[#   8]+0.002*[#  27]+0.002*[#  28]+0.002*[#  30]
          +0.002*[#  14]+0.002*[#  15]+0.002*[#  17]
    |psi|^2 = 0.932

 k =   0.6250000000 -0.2083333333 -0.2083333333
==== e(   1) =   -90.51371 eV ==== 
     psi = 0.991*[#   9]
    |psi|^2 = 1.000
==== e(   2) =   -88.26394 eV ==== 
     psi = 0.992*[#  22]+0.001*[#  19]+0.001*[#  20]+0.001*[#  21]+0.001*[#  32]
          +0.001*[#  33]+0.001*[#  34]
    |psi|^2 = 1.003
==== e(   3) =   -50.90203 eV ==== 
     psi = 0.272*[#  10]+0.272*[#  11]+0.272*[#  12]
    |psi|^2 = 0.818
==== e(   4) =   -50.89550 eV ==== 
     psi = 0.227*[#  10]+0.227*[#  11]+0.227*[#  12]+0.001*[#  19]+0.001*[#  20]
          +0.001*[#  21]
    |psi|^2 = 0.688
==== e(   5) =   -50.88620 eV ==== 
     psi = 0.333*[#  10]+0.333*[#  11]+0.333*[#  12]
    |psi|^2 = 1.000
==== e(   6) =   -48.72629 eV ==== 
     psi = 0.272*[#  23]+0.272*[#  24]+0.272*[#  25]
    |psi|^2 = 0.820
==== e(   7) =   -48.71518 eV ==== 
     psi = 0.286*[#  23]+0.286*[#  24]+0.286*[#  25]
    |psi|^2 = 0.860
==== e(   8) =   -48.70818 eV ==== 
     psi = 0.379*[#  23]+0.379*[#  24]+0.379*[#  25]
    |psi|^2 = 1.140
==== e(   9) =    -4.44871 eV ==== 
     psi = 0.379*[#   1]+0.379*[#   5]+0.042*[#  32]+0.042*[#  33]+0.042*[#  34]
          +0.022*[#  18]+0.015*[#  19]+0.015*[#  20]+0.015*[#  21]+0.014*[#  13]
          +0.014*[#  16]+0.014*[#  31]
    |psi|^2 = 0.999
==== e(  10) =    -4.08136 eV ==== 
     psi = 0.408*[#   1]+0.408*[#   5]+0.035*[#  19]+0.035*[#  20]+0.035*[#  21]
          +0.024*[#  32]+0.024*[#  33]+0.024*[#  34]+0.008*[#  26]+0.008*[#  29]
          +0.008*[#  31]+0.007*[#  13]+0.007*[#  16]
    |psi|^2 = 1.033
==== e(  11) =     6.77414 eV ==== 
     psi = 0.095*[#  13]+0.095*[#  16]+0.068*[#   2]+0.068*[#   3]+0.068*[#   4]
          +0.068*[#   6]+0.068*[#   7]+0.068*[#   8]+0.041*[#  31]+0.038*[#  14]
          +0.038*[#  15]+0.038*[#  17]+0.034*[#  18]+0.030*[#  32]+0.030*[#  33]
          +0.030*[#  34]+0.022*[#  19]+0.022*[#  20]+0.022*[#  21]+0.015*[#  27]
          +0.015*[#  28]+0.015*[#  30]+0.006*[#   1]+0.006*[#   5]+0.003*[#  26]
          +0.003*[#  29]+0.001*[#  22]+0.001*[#   9]
    |psi|^2 = 1.012
==== e(  12) =     6.95533 eV ==== 
     psi = 0.085*[#  14]+0.085*[#  15]+0.085*[#  17]+0.053*[#  18]+0.044*[#   2]
          +0.044*[#   3]+0.044*[#   4]+0.044*[#   6]+0.044*[#   7]+0.044*[#   8]
          +0.033*[#  31]+0.024*[#  13]+0.024*[#  16]+0.022*[#  19]+0.022*[#  20]
          +0.022*[#  21]+0.020*[#  27]+0.020*[#  28]+0.020*[#  30]+0.015*[#  32]
          +0.015*[#  33]+0.015*[#  34]
    |psi|^2 = 0.830
==== e(  13) =     7.59675 eV ==== 
     psi = 0.334*[#  13]+0.334*[#  16]+0.045*[#   2]+0.045*[#   3]+0.045*[#   4]
          +0.045*[#   6]+0.045*[#   7]+0.045*[#   8]+0.013*[#  14]+0.013*[#  15]
          +0.013*[#  17]+0.007*[#  32]+0.007*[#  33]+0.007*[#  34]
    |psi|^2 = 0.999
==== e(  14) =     7.59766 eV ==== 
     psi = 0.068*[#  13]+0.068*[#  16]+0.057*[#   2]+0.057*[#   3]+0.057*[#   4]
          +0.057*[#   6]+0.057*[#   7]+0.057*[#   8]+0.048*[#  14]+0.048*[#  15]
          +0.048*[#  17]+0.041*[#  27]+0.041*[#  28]+0.041*[#  30]+0.027*[#  19]
          +0.027*[#  20]+0.027*[#  21]+0.019*[#  31]+0.018*[#  32]+0.018*[#  33]
          +0.018*[#  34]+0.007*[#  18]+0.003*[#   1]+0.003*[#   5]
    |psi|^2 = 0.911
==== e(  15) =     8.55747 eV ==== 
     psi = 0.085*[#  27]+0.085*[#  28]+0.085*[#  30]+0.063*[#   2]+0.063*[#   3]
          +0.063*[#   4]+0.063*[#   6]+0.063*[#   7]+0.063*[#   8]+0.042*[#  13]
          +0.042*[#  16]+0.025*[#  26]+0.025*[#  29]+0.024*[#  19]+0.024*[#  20]
          +0.024*[#  21]+0.022*[#  14]+0.022*[#  15]+0.022*[#  17]+0.011*[#  31]
          +0.005*[#   1]+0.005*[#   5]+0.004*[#  32]+0.004*[#  33]+0.004*[#  34]
          +0.003*[#  18]
    |psi|^2 = 0.946
==== e(  16) =     9.42023 eV ==== 
     psi = 0.223*[#  14]+0.223*[#  15]+0.223*[#  17]+0.081*[#  13]+0.081*[#  16]
          +0.051*[#   2]+0.051*[#   3]+0.051*[#   4]+0.051*[#   6]+0.051*[#   7]
          +0.051*[#   8]+0.027*[#  19]+0.027*[#  20]+0.027*[#  21]+0.021*[#  27]
          +0.021*[#  28]+0.021*[#  30]+0.015*[#  32]+0.015*[#  33]+0.015*[#  34]
          +0.009*[#  18]+0.008*[#   1]+0.008*[#   5]+0.001*[#  26]+0.001*[#  29]
          
    |psi|^2 = 1.359
==== e(  17) =     9.55049 eV ==== 
     psi = 0.171*[#  14]+0.171*[#  15]+0.171*[#  17]+0.048*[#   2]+0.048*[#   3]
          +0.048*[#   4]+0.048*[#   6]+0.048*[#   7]+0.048*[#   8]+0.030*[#  27]
          +0.030*[#  28]+0.030*[#  30]+0.021*[#  26]+0.021*[#  29]+0.017*[#  13]
          +0.017*[#  16]+0.010*[#  19]+0.010*[#  20]+0.010*[#  21]
    |psi|^2 = 0.998
==== e(  18) =    10.19532 eV ==== 
     psi = 0.137*[#  14]+0.137*[#  15]+0.137*[#  17]+0.061*[#  27]+0.061*[#  28]
          +0.061*[#  30]+0.028*[#  26]+0.028*[#  29]+0.024*[#   2]+0.024*[#   3]
          +0.024*[#   4]+0.024*[#   6]+0.024*[#   7]+0.024*[#   8]+0.016*[#  13]
          +0.016*[#  16]+0.004*[#  19]+0.004*[#  20]+0.004*[#  21]
    |psi|^2 = 0.841
==== e(  19) =    10.77935 eV ==== 
     psi = 0.181*[#  14]+0.181*[#  15]+0.181*[#  17]+0.054*[#  27]+0.054*[#  28]
          +0.054*[#  30]+0.050*[#   2]+0.050*[#   3]+0.050*[#   4]+0.050*[#   6]
          +0.050*[#   7]+0.050*[#   8]+0.035*[#  18]+0.006*[#  32]+0.006*[#  33]
          +0.006*[#  34]+0.005*[#  13]+0.005*[#  16]+0.004*[#  19]+0.004*[#  20]
          +0.004*[#  21]+0.003*[#   1]+0.003*[#   5]+0.002*[#  26]+0.002*[#  29]
          
    |psi|^2 = 1.096
==== e(  20) =    11.16157 eV ==== 
     psi = 0.157*[#  27]+0.157*[#  28]+0.157*[#  30]+0.044*[#  14]+0.044*[#  15]
          +0.044*[#  17]+0.033*[#   2]+0.033*[#   3]+0.033*[#   4]+0.033*[#   6]
          +0.033*[#   7]+0.033*[#   8]+0.018*[#  31]+0.017*[#  26]+0.017*[#  29]
          +0.004*[#  19]+0.004*[#  20]+0.004*[#  21]+0.003*[#  32]+0.003*[#  33]
          +0.003*[#  34]
    |psi|^2 = 0.880
==== e(  21) =    11.52989 eV ==== 
     psi = 0.227*[#  27]+0.227*[#  28]+0.227*[#  30]+0.035*[#   2]+0.035*[#   3]
          +0.035*[#   4]+0.035*[#   6]+0.035*[#   7]+0.035*[#   8]+0.029*[#  26]
          +0.029*[#  29]+0.017*[#  13]+0.017*[#  16]+0.004*[#  19]+0.004*[#  20]
          +0.004*[#  21]+0.001*[#  32]+0.001*[#  33]+0.001*[#  34]
    |psi|^2 = 0.999
==== e(  22) =    11.74980 eV ==== 
     psi = 0.213*[#  27]+0.213*[#  28]+0.213*[#  30]+0.042*[#  13]+0.042*[#  16]
          +0.030*[#  31]+0.025*[#   2]+0.025*[#   3]+0.025*[#   4]+0.025*[#   6]
          +0.025*[#   7]+0.025*[#   8]+0.009*[#   1]+0.009*[#   5]+0.004*[#  14]
          +0.004*[#  15]+0.004*[#  17]+0.003*[#  19]+0.003*[#  20]+0.003*[#  21]
          +0.003*[#  26]+0.003*[#  29]+0.002*[#  32]+0.002*[#  33]+0.002*[#  34]
          
    |psi|^2 = 0.956
==== e(  23) =    12.20515 eV ==== 
     psi = 0.117*[#  13]+0.117*[#  16]+0.059*[#   2]+0.059*[#   3]+0.059*[#   4]
          +0.059*[#   6]+0.059*[#   7]+0.059*[#   8]+0.048*[#  27]+0.048*[#  28]
          +0.048*[#  30]+0.014*[#   1]+0.014*[#   5]+0.014*[#  32]+0.014*[#  33]
          +0.014*[#  34]+0.013*[#  14]+0.013*[#  15]+0.013*[#  17]+0.011*[#  18]
          +0.010*[#  26]+0.010*[#  29]
    |psi|^2 = 0.874
==== e(  24) =    12.67304 eV ==== 
     psi = 0.114*[#  13]+0.114*[#  16]+0.071*[#   2]+0.071*[#   3]+0.071*[#   4]
          +0.071*[#   6]+0.071*[#   7]+0.071*[#   8]+0.013*[#  27]+0.013*[#  28]
          +0.013*[#  30]+0.012*[#  14]+0.012*[#  15]+0.012*[#  17]+0.011*[#  32]
          +0.011*[#  33]+0.011*[#  34]+0.003*[#  19]+0.003*[#  20]+0.003*[#  21]
          
    |psi|^2 = 0.778
==== e(  25) =    16.24246 eV ==== 
     psi = 0.414*[#  26]+0.414*[#  29]+0.024*[#   1]+0.024*[#   5]+0.013*[#   2]
          +0.013*[#   3]+0.013*[#   4]+0.013*[#   6]+0.013*[#   7]+0.013*[#   8]
          +0.011*[#  18]+0.010*[#  19]+0.010*[#  20]+0.010*[#  21]
    |psi|^2 = 0.999
==== e(  26) =    16.25996 eV ==== 
     psi = 0.419*[#  26]+0.419*[#  29]+0.017*[#   2]+0.017*[#   3]+0.017*[#   4]
          +0.017*[#   6]+0.017*[#   7]+0.017*[#   8]+0.009*[#  19]+0.009*[#  20]
          +0.009*[#  21]+0.001*[#  13]+0.001*[#  16]
    |psi|^2 = 0.969
==== e(  27) =    21.33379 eV ==== 
     psi = 0.193*[#  18]+0.138*[#  31]+0.059*[#   1]+0.059*[#   5]+0.049*[#   2]
          +0.049*[#   3]+0.049*[#   4]+0.049*[#   6]+0.049*[#   7]+0.049*[#   8]
          +0.036*[#  32]+0.036*[#  33]+0.036*[#  34]+0.034*[#  19]+0.034*[#  20]
          +0.034*[#  21]+0.010*[#  26]+0.010*[#  29]+0.002*[#  13]+0.002*[#  16]
          
    |psi|^2 = 0.979
==== e(  28) =    22.69422 eV ==== 
     psi = 0.279*[#  31]+0.264*[#  18]+0.033*[#   1]+0.033*[#   5]+0.031*[#  19]
          +0.031*[#  20]+0.031*[#  21]+0.020*[#  32]+0.020*[#  33]+0.020*[#  34]
          +0.010*[#   2]+0.010*[#   3]+0.010*[#   4]+0.010*[#   6]+0.010*[#   7]
          +0.010*[#   8]+0.001*[#  27]+0.001*[#  28]+0.001*[#  30]
    |psi|^2 = 0.835
==== e(  29) =    24.05227 eV ==== 
     psi = 0.155*[#  18]+0.117*[#  31]+0.074*[#  32]+0.074*[#  33]+0.074*[#  34]
          +0.055*[#  19]+0.055*[#  20]+0.055*[#  21]+0.033*[#   2]+0.033*[#   3]
          +0.033*[#   4]+0.033*[#   6]+0.033*[#   7]+0.033*[#   8]+0.020*[#   1]
          +0.020*[#   5]+0.002*[#  26]+0.002*[#  29]+0.002*[#  27]+0.002*[#  28]
          +0.002*[#  30]+0.002*[#  14]+0.002*[#  15]+0.002*[#  17]+0.001*[#  13]
          +0.001*[#  16]
    |psi|^2 = 0.917
==== e(  30) =    25.04551 eV ==== 
     psi = 0.251*[#  31]+0.168*[#  18]+0.062*[#  19]+0.062*[#  20]+0.062*[#  21]
          +0.049*[#  32]+0.049*[#  33]+0.049*[#  34]+0.016*[#   2]+0.016*[#   3]
          +0.016*[#   4]+0.016*[#   6]+0.016*[#   7]+0.016*[#   8]+0.009*[#   1]
          +0.009*[#   5]+0.003*[#  22]+0.002*[#   9]+0.002*[#  27]+0.002*[#  28]
          +0.002*[#  30]
    |psi|^2 = 0.878

 k =  -0.7500000000  0.2500000000  0.2500000000
==== e(   1) =   -90.51361 eV ==== 
     psi = 0.993*[#   9]
    |psi|^2 = 1.000
==== e(   2) =   -88.26382 eV ==== 
     psi = 0.993*[#  22]+0.001*[#  19]+0.001*[#  20]+0.001*[#  21]+0.001*[#  32]
          +0.001*[#  33]+0.001*[#  34]
    |psi|^2 = 1.003
==== e(   3) =   -50.90352 eV ==== 
     psi = 0.272*[#  10]+0.272*[#  11]+0.272*[#  12]
    |psi|^2 = 0.821
==== e(   4) =   -50.89530 eV ==== 
     psi = 0.227*[#  10]+0.227*[#  11]+0.227*[#  12]+0.001*[#  19]+0.001*[#  20]
          +0.001*[#  21]
    |psi|^2 = 0.685
==== e(   5) =   -50.88658 eV ==== 
     psi = 0.333*[#  10]+0.333*[#  11]+0.333*[#  12]
    |psi|^2 = 1.000
==== e(   6) =   -48.72801 eV ==== 
     psi = 0.273*[#  23]+0.273*[#  24]+0.273*[#  25]
    |psi|^2 = 0.821
==== e(   7) =   -48.71496 eV ==== 
     psi = 0.285*[#  23]+0.285*[#  24]+0.285*[#  25]
    |psi|^2 = 0.858
==== e(   8) =   -48.70862 eV ==== 
     psi = 0.380*[#  23]+0.380*[#  24]+0.380*[#  25]
    |psi|^2 = 1.142
==== e(   9) =    -4.34039 eV ==== 
     psi = 0.393*[#   1]+0.393*[#   5]+0.050*[#  32]+0.050*[#  33]+0.050*[#  34]
          +0.022*[#  13]+0.022*[#  16]+0.016*[#  18]
    |psi|^2 = 0.999
==== e(  10) =    -4.08041 eV ==== 
     psi = 0.403*[#   1]+0.403*[#   5]+0.035*[#  19]+0.035*[#  20]+0.035*[#  21]
          +0.018*[#  32]+0.018*[#  33]+0.018*[#  34]+0.016*[#  31]+0.010*[#  26]
          +0.010*[#  29]
    |psi|^2 = 1.003
==== e(  11) =     6.66649 eV ==== 
     psi = 0.083*[#  14]+0.083*[#  15]+0.083*[#  17]+0.081*[#  18]+0.064*[#   2]
          +0.064*[#   3]+0.064*[#   4]+0.064*[#   6]+0.064*[#   7]+0.064*[#   8]
          +0.046*[#  32]+0.046*[#  33]+0.046*[#  34]+0.035*[#  13]+0.035*[#  16]
          +0.016*[#  19]+0.016*[#  20]+0.016*[#  21]+0.002*[#   9]
    |psi|^2 = 0.979
==== e(  12) =     7.01871 eV ==== 
     psi = 0.104*[#  31]+0.070*[#  27]+0.070*[#  28]+0.070*[#  30]+0.067*[#   2]
          +0.067*[#   3]+0.067*[#   4]+0.067*[#   6]+0.067*[#   7]+0.067*[#   8]
          +0.063*[#  19]+0.063*[#  20]+0.063*[#  21]+0.003*[#   1]+0.003*[#   5]
          +0.003*[#  22]+0.002*[#  26]+0.002*[#  29]
    |psi|^2 = 0.920
==== e(  13) =     7.32849 eV ==== 
     psi = 0.173*[#  13]+0.173*[#  16]+0.083*[#  14]+0.083*[#  15]+0.083*[#  17]
          +0.052*[#   2]+0.052*[#   3]+0.052*[#   4]+0.052*[#   6]+0.052*[#   7]
          +0.052*[#   8]+0.022*[#  32]+0.022*[#  33]+0.022*[#  34]+0.015*[#  18]
          +0.002*[#   1]+0.002*[#   5]
    |psi|^2 = 0.997
==== e(  14) =     7.58508 eV ==== 
     psi = 0.329*[#  13]+0.329*[#  16]+0.037*[#   2]+0.037*[#   3]+0.037*[#   4]
          +0.037*[#   6]+0.037*[#   7]+0.037*[#   8]+0.016*[#  14]+0.016*[#  15]
          +0.016*[#  17]+0.011*[#  32]+0.011*[#  33]+0.011*[#  34]
    |psi|^2 = 0.961
==== e(  15) =     8.72752 eV ==== 
     psi = 0.107*[#  27]+0.107*[#  28]+0.107*[#  30]+0.085*[#   2]+0.085*[#   3]
          +0.085*[#   4]+0.085*[#   6]+0.085*[#   7]+0.085*[#   8]+0.033*[#  26]
          +0.033*[#  29]+0.032*[#  19]+0.032*[#  20]+0.032*[#  21]+0.005*[#  31]
          +0.004*[#   1]+0.004*[#   5]+0.004*[#  32]+0.004*[#  33]+0.004*[#  34]
          
    |psi|^2 = 1.015
==== e(  16) =     9.38402 eV ==== 
     psi = 0.242*[#  14]+0.242*[#  15]+0.242*[#  17]+0.101*[#  13]+0.101*[#  16]
          +0.009*[#   1]+0.009*[#   5]+0.006*[#  18]+0.004*[#   2]+0.004*[#   3]
          +0.004*[#   4]+0.004*[#   6]+0.004*[#   7]+0.004*[#   8]
    |psi|^2 = 0.975
==== e(  17) =     9.83376 eV ==== 
     psi = 0.098*[#   2]+0.098*[#   3]+0.098*[#   4]+0.098*[#   6]+0.098*[#   7]
          +0.098*[#   8]+0.081*[#  27]+0.081*[#  28]+0.081*[#  30]+0.052*[#  26]
          +0.052*[#  29]+0.020*[#  19]+0.020*[#  20]+0.020*[#  21]
    |psi|^2 = 0.997
==== e(  18) =     9.88833 eV ==== 
     psi = 0.303*[#  14]+0.303*[#  15]+0.303*[#  17]+0.043*[#  13]+0.043*[#  16]
          
    |psi|^2 = 0.998
==== e(  19) =    10.79355 eV ==== 
     psi = 0.231*[#  14]+0.231*[#  15]+0.231*[#  17]+0.043*[#  18]+0.027*[#   2]
          +0.027*[#   3]+0.027*[#   4]+0.027*[#   6]+0.027*[#   7]+0.027*[#   8]
          +0.006*[#  32]+0.006*[#  33]+0.006*[#  34]+0.002*[#   1]+0.002*[#   5]
          +0.002*[#  13]+0.002*[#  16]
    |psi|^2 = 0.928
==== e(  20) =    11.06456 eV ==== 
     psi = 0.210*[#  27]+0.210*[#  28]+0.210*[#  30]+0.029*[#   2]+0.029*[#   3]
          +0.029*[#   4]+0.029*[#   6]+0.029*[#   7]+0.029*[#   8]+0.024*[#  26]
          +0.024*[#  29]+0.014*[#  31]+0.004*[#  19]+0.004*[#  20]+0.004*[#  21]
          
    |psi|^2 = 0.878
==== e(  21) =    11.61742 eV ==== 
     psi = 0.251*[#  27]+0.251*[#  28]+0.251*[#  30]+0.031*[#   2]+0.031*[#   3]
          +0.031*[#   4]+0.031*[#   6]+0.031*[#   7]+0.031*[#   8]+0.025*[#  26]
          +0.025*[#  29]+0.004*[#  19]+0.004*[#  20]+0.004*[#  21]
    |psi|^2 = 0.999
==== e(  22) =    11.82281 eV ==== 
     psi = 0.267*[#  27]+0.267*[#  28]+0.267*[#  30]+0.026*[#  31]+0.018*[#   2]
          +0.018*[#   3]+0.018*[#   4]+0.018*[#   6]+0.018*[#   7]+0.018*[#   8]
          +0.002*[#  19]+0.002*[#  20]+0.002*[#  21]
    |psi|^2 = 0.947
==== e(  23) =    12.17311 eV ==== 
     psi = 0.163*[#  13]+0.163*[#  16]+0.065*[#   2]+0.065*[#   3]+0.065*[#   4]
          +0.065*[#   6]+0.065*[#   7]+0.065*[#   8]+0.023*[#   1]+0.023*[#   5]
          +0.022*[#  32]+0.022*[#  33]+0.022*[#  34]+0.019*[#  14]+0.019*[#  15]
          +0.019*[#  17]+0.010*[#  18]
    |psi|^2 = 0.903
==== e(  24) =    12.63884 eV ==== 
     psi = 0.127*[#  13]+0.127*[#  16]+0.063*[#   2]+0.063*[#   3]+0.063*[#   4]
          +0.063*[#   6]+0.063*[#   7]+0.063*[#   8]+0.014*[#  14]+0.014*[#  15]
          +0.014*[#  17]+0.011*[#  32]+0.011*[#  33]+0.011*[#  34]+0.002*[#  19]
          +0.002*[#  20]+0.002*[#  21]
    |psi|^2 = 0.713
==== e(  25) =    16.24820 eV ==== 
     psi = 0.422*[#  26]+0.422*[#  29]+0.022*[#   2]+0.022*[#   3]+0.022*[#   4]
          +0.022*[#   6]+0.022*[#   7]+0.022*[#   8]+0.007*[#  19]+0.007*[#  20]
          +0.007*[#  21]
    |psi|^2 = 0.998
==== e(  26) =    16.29519 eV ==== 
     psi = 0.422*[#  26]+0.422*[#  29]+0.024*[#   1]+0.024*[#   5]+0.010*[#  19]
          +0.010*[#  20]+0.010*[#  21]+0.009*[#   2]+0.009*[#   3]+0.009*[#   4]
          +0.009*[#   6]+0.009*[#   7]+0.009*[#   8]
    |psi|^2 = 0.974
==== e(  27) =    21.97018 eV ==== 
     psi = 0.440*[#  18]+0.059*[#  32]+0.059*[#  33]+0.059*[#  34]+0.045*[#   1]
          +0.045*[#   5]+0.028*[#   2]+0.028*[#   3]+0.028*[#   4]+0.028*[#   6]
          +0.028*[#   7]+0.028*[#   8]+0.002*[#  13]+0.002*[#  16]+0.002*[#  19]
          +0.002*[#  20]+0.002*[#  21]+0.001*[#  14]+0.001*[#  15]+0.001*[#  17]
          
    |psi|^2 = 0.888
==== e(  28) =    22.16761 eV ==== 
     psi = 0.396*[#  31]+0.073*[#  19]+0.073*[#  20]+0.073*[#  21]+0.045*[#   1]
          +0.045*[#   5]+0.031*[#   2]+0.031*[#   3]+0.031*[#   4]+0.031*[#   6]
          +0.031*[#   7]+0.031*[#   8]+0.007*[#  26]+0.007*[#  29]+0.002*[#  27]
          +0.002*[#  28]+0.002*[#  30]
    |psi|^2 = 0.912
==== e(  29) =    24.23383 eV ==== 
     psi = 0.368*[#  18]+0.119*[#  32]+0.119*[#  33]+0.119*[#  34]+0.025*[#   2]
          +0.025*[#   3]+0.025*[#   4]+0.025*[#   6]+0.025*[#   7]+0.025*[#   8]
          +0.014*[#   1]+0.014*[#   5]+0.003*[#   9]+0.002*[#  14]+0.002*[#  15]
          +0.002*[#  17]+0.001*[#  13]+0.001*[#  16]
    |psi|^2 = 0.916
==== e(  30) =    24.40123 eV ==== 
     psi = 0.415*[#  31]+0.108*[#  19]+0.108*[#  20]+0.108*[#  21]+0.025*[#   2]
          +0.025*[#   3]+0.025*[#   4]+0.025*[#   6]+0.025*[#   7]+0.025*[#   8]
          +0.011*[#   1]+0.011*[#   5]+0.003*[#  22]+0.003*[#  27]+0.003*[#  28]
          +0.003*[#  30]+0.002*[#  26]+0.002*[#  29]
    |psi|^2 = 0.923

 k =   0.0833333333  0.0833333333 -0.0833333333
==== e(   1) =   -90.51537 eV ==== 
     psi = 0.991*[#   9]+0.001*[#  31]
    |psi|^2 = 1.000
==== e(   2) =   -88.26588 eV ==== 
     psi = 0.991*[#  22]+0.001*[#  18]
    |psi|^2 = 1.000
==== e(   3) =   -50.89816 eV ==== 
     psi = 0.222*[#  10]+0.222*[#  11]+0.222*[#  12]+0.001*[#  32]+0.001*[#  33]
          +0.001*[#  34]
    |psi|^2 = 0.671
==== e(   4) =   -50.88237 eV ==== 
     psi = 0.110*[#  10]+0.110*[#  11]+0.110*[#  12]
    |psi|^2 = 0.335
==== e(   5) =   -50.88121 eV ==== 
     psi = 0.332*[#  10]+0.332*[#  11]+0.332*[#  12]
    |psi|^2 = 1.000
==== e(   6) =   -48.71794 eV ==== 
     psi = 0.222*[#  23]+0.222*[#  24]+0.222*[#  25]+0.166*[#  10]+0.166*[#  11]
          +0.166*[#  12]
    |psi|^2 = 1.169
==== e(   7) =   -48.70380 eV ==== 
     psi = 0.220*[#  23]+0.220*[#  24]+0.220*[#  25]
    |psi|^2 = 0.663
==== e(   8) =   -48.70248 eV ==== 
     psi = 0.444*[#  23]+0.444*[#  24]+0.444*[#  25]
    |psi|^2 = 1.334
==== e(   9) =    -5.56294 eV ==== 
     psi = 0.334*[#   1]+0.334*[#   5]+0.143*[#  18]+0.141*[#  31]+0.007*[#  19]
          +0.007*[#  20]+0.007*[#  21]+0.007*[#  32]+0.007*[#  33]+0.007*[#  34]
          +0.002*[#   9]+0.002*[#  22]
    |psi|^2 = 1.000
==== e(  10) =    -4.18139 eV ==== 
     psi = 0.372*[#   1]+0.372*[#   5]+0.030*[#  19]+0.030*[#  20]+0.030*[#  21]
          +0.030*[#  32]+0.030*[#  33]+0.030*[#  34]+0.001*[#  13]+0.001*[#  16]
          
    |psi|^2 = 0.930
==== e(  11) =     5.80592 eV ==== 
     psi = 0.101*[#  31]+0.100*[#  18]+0.057*[#  14]+0.057*[#  15]+0.057*[#  17]
          +0.054*[#   2]+0.054*[#   3]+0.054*[#   4]+0.054*[#   6]+0.054*[#   7]
          +0.054*[#   8]+0.033*[#  27]+0.033*[#  28]+0.033*[#  30]+0.015*[#  19]
          +0.015*[#  20]+0.015*[#  21]+0.015*[#  32]+0.015*[#  33]+0.015*[#  34]
          +0.002*[#  22]+0.002*[#   9]
    |psi|^2 = 0.894
==== e(  12) =     7.42000 eV ==== 
     psi = 0.313*[#  13]+0.313*[#  16]+0.019*[#  14]+0.019*[#  15]+0.019*[#  17]
          +0.016*[#   2]+0.016*[#   3]+0.016*[#   4]+0.016*[#   6]+0.016*[#   7]
          +0.016*[#   8]+0.014*[#  32]+0.014*[#  33]+0.014*[#  34]+0.014*[#  19]
          +0.014*[#  20]+0.014*[#  21]+0.007*[#  26]+0.007*[#  29]+0.006*[#  27]
          +0.006*[#  28]+0.006*[#  30]
    |psi|^2 = 0.898
==== e(  13) =     7.47185 eV ==== 
     psi = 0.329*[#  13]+0.329*[#  16]+0.044*[#   2]+0.044*[#   3]+0.044*[#   4]
          +0.044*[#   6]+0.044*[#   7]+0.044*[#   8]+0.014*[#  14]+0.014*[#  15]
          +0.014*[#  17]+0.007*[#  26]+0.007*[#  29]+0.007*[#  27]+0.007*[#  28]
          +0.007*[#  30]
    |psi|^2 = 0.998
==== e(  14) =     9.16434 eV ==== 
     psi = 0.267*[#  14]+0.267*[#  15]+0.267*[#  17]+0.029*[#  27]+0.029*[#  28]
          +0.029*[#  30]+0.026*[#   2]+0.026*[#   3]+0.026*[#   4]+0.026*[#   6]
          +0.026*[#   7]+0.026*[#   8]+0.024*[#  13]+0.024*[#  16]+0.002*[#  18]
          +0.001*[#  32]+0.001*[#  33]+0.001*[#  34]
    |psi|^2 = 1.101
==== e(  15) =     9.25845 eV ==== 
     psi = 0.287*[#  14]+0.287*[#  15]+0.287*[#  17]+0.022*[#  13]+0.022*[#  16]
          +0.020*[#  27]+0.020*[#  28]+0.020*[#  30]+0.008*[#   2]+0.008*[#   3]
          +0.008*[#   4]+0.008*[#   6]+0.008*[#   7]+0.008*[#   8]+0.001*[#  26]
          +0.001*[#  29]
    |psi|^2 = 1.021
==== e(  16) =     9.49564 eV ==== 
     psi = 0.218*[#  14]+0.218*[#  15]+0.218*[#  17]+0.094*[#  27]+0.094*[#  28]
          +0.094*[#  30]+0.006*[#   2]+0.006*[#   3]+0.006*[#   4]+0.006*[#   6]
          +0.006*[#   7]+0.006*[#   8]+0.006*[#  18]+0.003*[#  31]+0.002*[#  13]
          +0.002*[#  16]
    |psi|^2 = 0.986
==== e(  17) =    10.28399 eV ==== 
     psi = 0.208*[#  27]+0.208*[#  28]+0.208*[#  30]+0.065*[#  13]+0.065*[#  16]
          +0.025*[#   2]+0.025*[#   3]+0.025*[#   4]+0.025*[#   6]+0.025*[#   7]
          +0.025*[#   8]+0.015*[#  26]+0.015*[#  29]+0.014*[#  14]+0.014*[#  15]
          +0.014*[#  17]+0.002*[#  19]+0.002*[#  20]+0.002*[#  21]+0.002*[#   1]
          +0.002*[#   5]+0.002*[#  18]+0.001*[#  31]
    |psi|^2 = 0.994
==== e(  18) =    10.52800 eV ==== 
     psi = 0.258*[#  27]+0.258*[#  28]+0.258*[#  30]+0.059*[#  13]+0.059*[#  16]
          +0.019*[#   2]+0.019*[#   3]+0.019*[#   4]+0.019*[#   6]+0.019*[#   7]
          +0.019*[#   8]+0.013*[#  26]+0.013*[#  29]+0.005*[#  14]+0.005*[#  15]
          +0.005*[#  17]+0.001*[#  19]+0.001*[#  20]+0.001*[#  21]
    |psi|^2 = 1.051
==== e(  19) =    11.41563 eV ==== 
     psi = 0.036*[#  14]+0.036*[#  15]+0.036*[#  17]+0.035*[#  31]+0.020*[#   2]
          +0.020*[#   3]+0.020*[#   4]+0.020*[#   6]+0.020*[#   7]+0.020*[#   8]
          +0.018*[#  26]+0.018*[#  29]+0.012*[#  27]+0.012*[#  28]+0.012*[#  30]
          +0.009*[#   1]+0.009*[#   5]+0.006*[#  18]+0.004*[#  13]+0.004*[#  16]
          
    |psi|^2 = 0.367
==== e(  20) =    11.51414 eV ==== 
     psi = 0.129*[#   2]+0.129*[#   3]+0.129*[#   4]+0.129*[#   6]+0.129*[#   7]
          +0.129*[#   8]+0.053*[#  26]+0.053*[#  29]+0.021*[#  14]+0.021*[#  15]
          +0.021*[#  17]+0.019*[#  27]+0.019*[#  28]+0.019*[#  30]+0.005*[#  19]
          +0.005*[#  20]+0.005*[#  21]+0.004*[#  13]+0.004*[#  16]+0.002*[#  32]
          +0.002*[#  33]+0.002*[#  34]
    |psi|^2 = 1.028
==== e(  21) =    11.61782 eV ==== 
     psi = 0.107*[#   2]+0.107*[#   3]+0.107*[#   4]+0.107*[#   6]+0.107*[#   7]
          +0.107*[#   8]+0.082*[#  27]+0.082*[#  28]+0.082*[#  30]+0.021*[#  18]
          +0.020*[#  26]+0.020*[#  29]+0.006*[#  14]+0.006*[#  15]+0.006*[#  17]
          +0.006*[#   1]+0.006*[#   5]+0.004*[#  31]+0.003*[#  19]+0.003*[#  20]
          +0.003*[#  21]+0.002*[#  32]+0.002*[#  33]+0.002*[#  34]
    |psi|^2 = 0.996
==== e(  22) =    11.67818 eV ==== 
     psi = 0.177*[#  27]+0.177*[#  28]+0.177*[#  30]+0.080*[#   2]+0.080*[#   3]
          +0.080*[#   4]+0.080*[#   6]+0.080*[#   7]+0.080*[#   8]+0.036*[#  14]
          +0.036*[#  15]+0.036*[#  17]+0.023*[#  18]+0.014*[#  31]+0.013*[#  26]
          +0.013*[#  29]+0.002*[#  13]+0.002*[#  16]+0.001*[#  19]+0.001*[#  20]
          +0.001*[#  21]
    |psi|^2 = 1.191
==== e(  23) =    12.49302 eV ==== 
     psi = 0.076*[#  13]+0.076*[#  16]+0.052*[#  26]+0.052*[#  29]+0.047*[#   2]
          +0.047*[#   3]+0.047*[#   4]+0.047*[#   6]+0.047*[#   7]+0.047*[#   8]
          +0.018*[#  27]+0.018*[#  28]+0.018*[#  30]+0.008*[#  14]+0.008*[#  15]
          +0.008*[#  17]+0.002*[#  32]+0.002*[#  33]+0.002*[#  34]+0.001*[#   1]
          +0.001*[#   5]
    |psi|^2 = 0.630
==== e(  24) =    12.57010 eV ==== 
     psi = 0.120*[#   2]+0.120*[#   3]+0.120*[#   4]+0.120*[#   6]+0.120*[#   7]
          +0.120*[#   8]+0.073*[#  13]+0.073*[#  16]+0.058*[#  26]+0.058*[#  29]
          +0.027*[#  27]+0.027*[#  28]+0.027*[#  30]+0.005*[#  32]+0.005*[#  33]
          +0.005*[#  34]+0.004*[#  14]+0.004*[#  15]+0.004*[#  17]
    |psi|^2 = 1.095
==== e(  25) =    16.38166 eV ==== 
     psi = 0.367*[#  26]+0.367*[#  29]+0.034*[#   2]+0.034*[#   3]+0.034*[#   4]
          +0.034*[#   6]+0.034*[#   7]+0.034*[#   8]+0.011*[#  13]+0.011*[#  16]
          +0.007*[#   1]+0.007*[#   5]+0.005*[#  19]+0.005*[#  20]+0.005*[#  21]
          +0.002*[#  32]+0.002*[#  33]+0.002*[#  34]
    |psi|^2 = 0.996
==== e(  26) =    16.43752 eV ==== 
     psi = 0.366*[#  26]+0.366*[#  29]+0.045*[#   2]+0.045*[#   3]+0.045*[#   4]
          +0.045*[#   6]+0.045*[#   7]+0.045*[#   8]+0.012*[#  13]+0.012*[#  16]
          +0.003*[#  19]+0.003*[#  20]+0.003*[#  21]
    |psi|^2 = 1.037
==== e(  27) =    16.64434 eV ==== 
     psi = 0.294*[#  18]+0.277*[#  31]+0.146*[#   1]+0.146*[#   5]+0.008*[#   2]
          +0.008*[#   3]+0.008*[#   4]+0.008*[#   6]+0.008*[#   7]+0.008*[#   8]
          +0.006*[#  19]+0.006*[#  20]+0.006*[#  21]+0.006*[#  32]+0.006*[#  33]
          +0.006*[#  34]
    |psi|^2 = 0.952
==== e(  28) =    20.50035 eV ==== 
     psi = 0.108*[#   1]+0.108*[#   5]+0.077*[#  19]+0.077*[#  20]+0.077*[#  21]
          +0.074*[#  32]+0.074*[#  33]+0.074*[#  34]+0.020*[#   2]+0.020*[#   3]
          +0.020*[#   4]+0.020*[#   6]+0.020*[#   7]+0.020*[#   8]+0.004*[#  26]
          +0.004*[#  29]+0.003*[#  31]+0.003*[#  18]
    |psi|^2 = 0.807
==== e(  29) =    24.59922 eV ==== 
     psi = 0.352*[#  31]+0.338*[#  18]+0.042*[#   2]+0.042*[#   3]+0.042*[#   4]
          +0.042*[#   6]+0.042*[#   7]+0.042*[#   8]+0.002*[#   9]+0.002*[#  22]
          +0.002*[#  32]+0.002*[#  33]+0.002*[#  34]+0.001*[#  19]+0.001*[#  20]
          +0.001*[#  21]
    |psi|^2 = 0.957
==== e(  30) =    27.89100 eV ==== 
     psi = 0.154*[#  19]+0.154*[#  20]+0.154*[#  21]+0.141*[#  32]+0.141*[#  33]
          +0.141*[#  34]+0.009*[#  18]+0.008*[#  31]+0.002*[#   2]+0.002*[#   3]
          +0.002*[#   4]+0.002*[#   6]+0.002*[#   7]+0.002*[#   8]
    |psi|^2 = 0.919

 k =   0.2083333333  0.0416666667 -0.1250000000
==== e(   1) =   -90.51507 eV ==== 
     psi = 0.988*[#   9]+0.002*[#  19]+0.002*[#  20]+0.002*[#  21]
    |psi|^2 = 1.000
==== e(   2) =   -88.26556 eV ==== 
     psi = 0.988*[#  22]+0.002*[#  19]+0.002*[#  20]+0.002*[#  21]+0.002*[#  32]
          +0.002*[#  33]+0.002*[#  34]
    |psi|^2 = 1.002
==== e(   3) =   -50.89778 eV ==== 
     psi = 0.222*[#  10]+0.222*[#  11]+0.222*[#  12]+0.001*[#  32]+0.001*[#  33]
          +0.001*[#  34]
    |psi|^2 = 0.672
==== e(   4) =   -50.88516 eV ==== 
     psi = 0.166*[#  10]+0.166*[#  11]+0.166*[#  12]
    |psi|^2 = 0.506
==== e(   5) =   -50.88203 eV ==== 
     psi = 0.333*[#  10]+0.333*[#  11]+0.333*[#  12]
    |psi|^2 = 1.000
==== e(   6) =   -48.71755 eV ==== 
     psi = 0.223*[#  23]+0.223*[#  24]+0.223*[#  25]+0.056*[#  10]+0.056*[#  11]
          +0.056*[#  12]
    |psi|^2 = 0.838
==== e(   7) =   -48.70699 eV ==== 
     psi = 0.275*[#  23]+0.275*[#  24]+0.275*[#  25]
    |psi|^2 = 0.828
==== e(   8) =   -48.70340 eV ==== 
     psi = 0.387*[#  23]+0.387*[#  24]+0.387*[#  25]
    |psi|^2 = 1.164
==== e(   9) =    -5.41148 eV ==== 
     psi = 0.333*[#   1]+0.333*[#   5]+0.114*[#  18]+0.113*[#  31]+0.017*[#  19]
          +0.017*[#  20]+0.017*[#  21]+0.016*[#  32]+0.016*[#  33]+0.016*[#  34]
          +0.002*[#   9]+0.002*[#  22]
    |psi|^2 = 1.000
==== e(  10) =    -4.17999 eV ==== 
     psi = 0.378*[#   1]+0.378*[#   5]+0.036*[#  19]+0.036*[#  20]+0.036*[#  21]
          +0.036*[#  32]+0.036*[#  33]+0.036*[#  34]+0.004*[#  13]+0.004*[#  16]
          +0.002*[#  18]+0.002*[#  26]+0.002*[#  29]+0.002*[#  31]
    |psi|^2 = 0.991
==== e(  11) =     6.07214 eV ==== 
     psi = 0.088*[#  31]+0.085*[#  18]+0.058*[#  14]+0.058*[#  15]+0.058*[#  17]
          +0.050*[#   2]+0.050*[#   3]+0.050*[#   4]+0.050*[#   6]+0.050*[#   7]
          +0.050*[#   8]+0.032*[#  27]+0.032*[#  28]+0.032*[#  30]+0.017*[#  19]
          +0.017*[#  20]+0.017*[#  21]+0.017*[#  32]+0.017*[#  33]+0.017*[#  34]
          +0.004*[#  13]+0.004*[#  16]+0.002*[#  22]+0.001*[#   9]
    |psi|^2 = 0.861
==== e(  12) =     7.40723 eV ==== 
     psi = 0.290*[#  13]+0.290*[#  16]+0.028*[#   2]+0.028*[#   3]+0.028*[#   4]
          +0.028*[#   6]+0.028*[#   7]+0.028*[#   8]+0.024*[#  14]+0.024*[#  15]
          +0.024*[#  17]+0.012*[#  32]+0.012*[#  33]+0.012*[#  34]+0.012*[#  19]
          +0.012*[#  20]+0.012*[#  21]+0.007*[#  27]+0.007*[#  28]+0.007*[#  30]
          +0.004*[#  26]+0.004*[#  29]+0.001*[#  18]
    |psi|^2 = 0.925
==== e(  13) =     7.51497 eV ==== 
     psi = 0.336*[#  13]+0.336*[#  16]+0.044*[#   2]+0.044*[#   3]+0.044*[#   4]
          +0.044*[#   6]+0.044*[#   7]+0.044*[#   8]+0.007*[#  27]+0.007*[#  28]
          +0.007*[#  30]+0.007*[#  14]+0.007*[#  15]+0.007*[#  17]+0.006*[#  26]
          +0.006*[#  29]+0.001*[#  32]+0.001*[#  33]+0.001*[#  34]+0.001*[#  19]
          +0.001*[#  20]+0.001*[#  21]
    |psi|^2 = 0.998
==== e(  14) =     8.99630 eV ==== 
     psi = 0.238*[#  14]+0.238*[#  15]+0.238*[#  17]+0.034*[#  27]+0.034*[#  28]
          +0.034*[#  30]+0.021*[#  13]+0.021*[#  16]+0.020*[#   2]+0.020*[#   3]
          +0.020*[#   4]+0.020*[#   6]+0.020*[#   7]+0.020*[#   8]+0.006*[#  18]
          +0.003*[#  31]+0.002*[#  32]+0.002*[#  33]+0.002*[#  34]+0.002*[#   1]
          +0.002*[#   5]+0.002*[#  19]+0.002*[#  20]+0.002*[#  21]
    |psi|^2 = 1.004
==== e(  15) =     9.07489 eV ==== 
     psi = 0.244*[#  14]+0.244*[#  15]+0.244*[#  17]+0.027*[#   2]+0.027*[#   3]
          +0.027*[#   4]+0.027*[#   6]+0.027*[#   7]+0.027*[#   8]+0.020*[#  13]
          +0.020*[#  16]+0.016*[#  27]+0.016*[#  28]+0.016*[#  30]+0.009*[#  18]
          +0.007*[#  26]+0.007*[#  29]+0.003*[#   1]+0.003*[#   5]+0.003*[#  31]
          +0.002*[#  19]+0.002*[#  20]+0.002*[#  21]
    |psi|^2 = 1.020
==== e(  16) =     9.51350 eV ==== 
     psi = 0.225*[#  14]+0.225*[#  15]+0.225*[#  17]+0.083*[#  27]+0.083*[#  28]
          +0.083*[#  30]+0.007*[#  18]+0.007*[#   2]+0.007*[#   3]+0.007*[#   4]
          +0.007*[#   6]+0.007*[#   7]+0.007*[#   8]+0.004*[#  13]+0.004*[#  16]
          +0.002*[#  31]
    |psi|^2 = 0.985
==== e(  17) =     9.87876 eV ==== 
     psi = 0.153*[#  27]+0.153*[#  28]+0.153*[#  30]+0.055*[#  13]+0.055*[#  16]
          +0.046*[#   2]+0.046*[#   3]+0.046*[#   4]+0.046*[#   6]+0.046*[#   7]
          +0.046*[#   8]+0.026*[#  26]+0.026*[#  29]+0.018*[#  14]+0.018*[#  15]
          +0.018*[#  17]+0.005*[#  19]+0.005*[#  20]+0.005*[#  21]+0.005*[#   1]
          +0.005*[#   5]+0.004*[#  18]+0.003*[#  32]+0.003*[#  33]+0.003*[#  34]
          +0.002*[#  31]
    |psi|^2 = 0.994
==== e(  18) =    10.57317 eV ==== 
     psi = 0.247*[#  27]+0.247*[#  28]+0.247*[#  30]+0.049*[#  13]+0.049*[#  16]
          +0.035*[#   2]+0.035*[#   3]+0.035*[#   4]+0.035*[#   6]+0.035*[#   7]
          +0.035*[#   8]+0.020*[#  14]+0.020*[#  15]+0.020*[#  17]+0.006*[#  26]
          +0.006*[#  29]+0.003*[#  31]+0.003*[#  19]+0.003*[#  20]+0.003*[#  21]
          +0.002*[#  32]+0.002*[#  33]+0.002*[#  34]+0.001*[#  18]
    |psi|^2 = 1.145
==== e(  19) =    10.95339 eV ==== 
     psi = 0.072*[#   2]+0.072*[#   3]+0.072*[#   4]+0.072*[#   6]+0.072*[#   7]
          +0.072*[#   8]+0.054*[#  14]+0.054*[#  15]+0.054*[#  17]+0.040*[#  27]
[...]
==== e(   6) =   -48.71759 eV ==== 
     psi = 0.222*[#  10]+0.222*[#  11]+0.222*[#  12]+0.056*[#  23]+0.056*[#  24]
          +0.056*[#  25]
    |psi|^2 = 0.836
==== e(   7) =   -48.70690 eV ==== 
     psi = 0.277*[#  10]+0.277*[#  11]+0.277*[#  12]
    |psi|^2 = 0.832
==== e(   8) =   -48.70333 eV ==== 
     psi = 0.388*[#  10]+0.388*[#  11]+0.388*[#  12]
    |psi|^2 = 1.165
==== e(   9) =    -4.85854 eV ==== 
     psi = 0.345*[#   1]+0.345*[#   5]+0.097*[#  18]+0.053*[#  32]+0.053*[#  33]
          +0.053*[#  34]+0.012*[#  19]+0.012*[#  20]+0.012*[#  21]+0.004*[#   9]
          +0.003*[#  26]+0.003*[#  29]
    |psi|^2 = 1.000
==== e(  10) =    -4.82681 eV ==== 
     psi = 0.346*[#   1]+0.346*[#   5]+0.099*[#  31]+0.043*[#  19]+0.043*[#  20]
          +0.043*[#  21]+0.023*[#  32]+0.023*[#  33]+0.023*[#  34]+0.003*[#  22]
          +0.001*[#  13]+0.001*[#  16]
    |psi|^2 = 0.999
==== e(  11) =     6.99118 eV ==== 
     psi = 0.227*[#  26]+0.227*[#  29]+0.059*[#  18]+0.035*[#   2]+0.035*[#   3]
          +0.035*[#   4]+0.035*[#   6]+0.035*[#   7]+0.035*[#   8]+0.018*[#  19]
          +0.018*[#  20]+0.018*[#  21]+0.015*[#  27]+0.015*[#  28]+0.015*[#  30]
          +0.012*[#  14]+0.012*[#  15]+0.012*[#  17]+0.007*[#  32]+0.007*[#  33]
          +0.007*[#  34]+0.007*[#   1]+0.007*[#   5]+0.002*[#   9]
    |psi|^2 = 0.897
==== e(  12) =     7.63709 eV ==== 
     psi = 0.204*[#  26]+0.204*[#  29]+0.076*[#  27]+0.076*[#  28]+0.076*[#  30]
          +0.048*[#   2]+0.048*[#   3]+0.048*[#   4]+0.048*[#   6]+0.048*[#   7]
          +0.048*[#   8]+0.040*[#  31]+0.018*[#  19]+0.018*[#  20]+0.018*[#  21]
          +0.007*[#  32]+0.007*[#  33]+0.007*[#  34]+0.006*[#   1]+0.006*[#   5]
          +0.002*[#  14]+0.002*[#  15]+0.002*[#  17]
    |psi|^2 = 1.056
==== e(  13) =     7.64874 eV ==== 
     psi = 0.159*[#  26]+0.159*[#  29]+0.076*[#  27]+0.076*[#  28]+0.076*[#  30]
          +0.056*[#   2]+0.056*[#   3]+0.056*[#   4]+0.056*[#   6]+0.056*[#   7]
          +0.056*[#   8]+0.049*[#  31]+0.010*[#   1]+0.010*[#   5]+0.010*[#  13]
          +0.010*[#  16]+0.007*[#  32]+0.007*[#  33]+0.007*[#  34]+0.001*[#  22]
          
    |psi|^2 = 0.997
==== e(  14) =     8.57119 eV ==== 
     psi = 0.118*[#  14]+0.118*[#  15]+0.118*[#  17]+0.062*[#  27]+0.062*[#  28]
          +0.062*[#  30]+0.058*[#   2]+0.058*[#   3]+0.058*[#   4]+0.058*[#   6]
          +0.058*[#   7]+0.058*[#   8]+0.031*[#  26]+0.031*[#  29]+0.028*[#  18]
          +0.007*[#  32]+0.007*[#  33]+0.007*[#  34]+0.005*[#  19]+0.005*[#  20]
          +0.005*[#  21]+0.004*[#   1]+0.004*[#   5]
    |psi|^2 = 1.027
==== e(  15) =     8.85724 eV ==== 
     psi = 0.134*[#  27]+0.134*[#  28]+0.134*[#  30]+0.058*[#  14]+0.058*[#  15]
          +0.058*[#  17]+0.048*[#   2]+0.048*[#   3]+0.048*[#   4]+0.048*[#   6]
          +0.048*[#   7]+0.048*[#   8]+0.019*[#  31]+0.015*[#  13]+0.015*[#  16]
          +0.011*[#  19]+0.011*[#  20]+0.011*[#  21]+0.006*[#   1]+0.006*[#   5]
          +0.005*[#  32]+0.005*[#  33]+0.005*[#  34]+0.003*[#  26]+0.003*[#  29]
          
    |psi|^2 = 0.980
==== e(  16) =     9.08862 eV ==== 
     psi = 0.178*[#  27]+0.178*[#  28]+0.178*[#  30]+0.097*[#  26]+0.097*[#  29]
          +0.051*[#   2]+0.051*[#   3]+0.051*[#   4]+0.051*[#   6]+0.051*[#   7]
          +0.051*[#   8]+0.019*[#  18]+0.010*[#  14]+0.010*[#  15]+0.010*[#  17]
          +0.009*[#  13]+0.009*[#  16]+0.005*[#   1]+0.005*[#   5]+0.005*[#  19]
          +0.005*[#  20]+0.005*[#  21]+0.005*[#  32]+0.005*[#  33]+0.005*[#  34]
          
    |psi|^2 = 1.143
==== e(  17) =     9.53190 eV ==== 
     psi = 0.240*[#  27]+0.240*[#  28]+0.240*[#  30]+0.054*[#  14]+0.054*[#  15]
          +0.054*[#  17]+0.013*[#  26]+0.013*[#  29]+0.010*[#  31]+0.010*[#   2]
          +0.010*[#   3]+0.010*[#   4]+0.010*[#   6]+0.010*[#   7]+0.010*[#   8]
          +0.004*[#  13]+0.004*[#  16]+0.003*[#   1]+0.003*[#   5]
    |psi|^2 = 0.994
==== e(  18) =    10.12901 eV ==== 
     psi = 0.198*[#  14]+0.198*[#  15]+0.198*[#  17]+0.040*[#  27]+0.040*[#  28]
          +0.040*[#  30]+0.033*[#   2]+0.033*[#   3]+0.033*[#   4]+0.033*[#   6]
          +0.033*[#   7]+0.033*[#   8]+0.016*[#  13]+0.016*[#  16]+0.002*[#  32]
          +0.002*[#  33]+0.002*[#  34]+0.001*[#  19]+0.001*[#  20]+0.001*[#  21]
          
    |psi|^2 = 0.957
==== e(  19) =    10.98201 eV ==== 
     psi = 0.165*[#  14]+0.165*[#  15]+0.165*[#  17]+0.078*[#  27]+0.078*[#  28]
          +0.078*[#  30]+0.029*[#  31]+0.025*[#   2]+0.025*[#   3]+0.025*[#   4]
          +0.025*[#   6]+0.025*[#   7]+0.025*[#   8]+0.010*[#  26]+0.010*[#  29]
          +0.008*[#  13]+0.008*[#  16]+0.007*[#   1]+0.007*[#   5]+0.003*[#  32]
          +0.003*[#  33]+0.003*[#  34]+0.001*[#  19]+0.001*[#  20]+0.001*[#  21]
          
    |psi|^2 = 0.974
==== e(  20) =    11.47996 eV ==== 
     psi = 0.144*[#  14]+0.144*[#  15]+0.144*[#  17]+0.071*[#   2]+0.071*[#   3]
          +0.071*[#   4]+0.071*[#   6]+0.071*[#   7]+0.071*[#   8]+0.049*[#  13]
          +0.049*[#  16]+0.021*[#  27]+0.021*[#  28]+0.021*[#  30]+0.012*[#  18]
          +0.003*[#  26]+0.003*[#  29]+0.002*[#  32]+0.002*[#  33]+0.002*[#  34]
          +0.001*[#   1]+0.001*[#   5]+0.001*[#  19]+0.001*[#  20]+0.001*[#  21]
          
    |psi|^2 = 1.046
==== e(  21) =    11.57381 eV ==== 
     psi = 0.106*[#  14]+0.106*[#  15]+0.106*[#  17]+0.084*[#  26]+0.084*[#  29]
          +0.054*[#   2]+0.054*[#   3]+0.054*[#   4]+0.054*[#   6]+0.054*[#   7]
          +0.054*[#   8]+0.053*[#  18]+0.027*[#  13]+0.027*[#  16]+0.023*[#   1]
          +0.023*[#   5]+0.007*[#  27]+0.007*[#  28]+0.007*[#  30]+0.003*[#  32]
          +0.003*[#  33]+0.003*[#  34]+0.001*[#   9]+0.001*[#  19]+0.001*[#  20]
          +0.001*[#  21]
    |psi|^2 = 0.996
==== e(  22) =    11.78280 eV ==== 
     psi = 0.082*[#   2]+0.082*[#   3]+0.082*[#   4]+0.082*[#   6]+0.082*[#   7]
          +0.082*[#   8]+0.048*[#  27]+0.048*[#  28]+0.048*[#  30]+0.040*[#  14]
          +0.040*[#  15]+0.040*[#  17]+0.028*[#  13]+0.028*[#  16]+0.008*[#  26]
          +0.008*[#  29]+0.006*[#  31]+0.003*[#  19]+0.003*[#  20]+0.003*[#  21]
          +0.003*[#  32]+0.003*[#  33]+0.003*[#  34]
    |psi|^2 = 0.856
==== e(  23) =    12.46218 eV ==== 
     psi = 0.101*[#   2]+0.101*[#   3]+0.101*[#   4]+0.101*[#   6]+0.101*[#   7]
          +0.101*[#   8]+0.069*[#  14]+0.069*[#  15]+0.069*[#  17]+0.046*[#  26]
          +0.046*[#  29]+0.008*[#  27]+0.008*[#  28]+0.008*[#  30]+0.007*[#  13]
          +0.007*[#  16]+0.006*[#  32]+0.006*[#  33]+0.006*[#  34]+0.004*[#  19]
          +0.004*[#  20]+0.004*[#  21]+0.003*[#   1]+0.003*[#   5]+0.002*[#  18]
          
    |psi|^2 = 0.983
==== e(  24) =    12.86926 eV ==== 
     psi = 0.147*[#   2]+0.147*[#   3]+0.147*[#   4]+0.147*[#   6]+0.147*[#   7]
          +0.147*[#   8]+0.096*[#  26]+0.096*[#  29]+0.025*[#  13]+0.025*[#  16]
          +0.011*[#  14]+0.011*[#  15]+0.011*[#  17]+0.008*[#  27]+0.008*[#  28]
          +0.008*[#  30]+0.007*[#  19]+0.007*[#  20]+0.007*[#  21]+0.006*[#  31]
          +0.003*[#  32]+0.003*[#  33]+0.003*[#  34]
    |psi|^2 = 1.214
==== e(  25) =    15.92854 eV ==== 
     psi = 0.382*[#  13]+0.382*[#  16]+0.044*[#  31]+0.021*[#   1]+0.021*[#   5]
          +0.019*[#   2]+0.019*[#   3]+0.019*[#   4]+0.019*[#   6]+0.019*[#   7]
          +0.019*[#   8]+0.007*[#  19]+0.007*[#  20]+0.007*[#  21]+0.004*[#  26]
          +0.004*[#  29]
    |psi|^2 = 0.997
==== e(  26) =    16.29150 eV ==== 
     psi = 0.387*[#  13]+0.387*[#  16]+0.034*[#   2]+0.034*[#   3]+0.034*[#   4]
          +0.034*[#   6]+0.034*[#   7]+0.034*[#   8]+0.005*[#  32]+0.005*[#  33]
          +0.005*[#  34]+0.003*[#  26]+0.003*[#  29]+0.002*[#   1]+0.002*[#   5]
          +0.002*[#  19]+0.002*[#  20]+0.002*[#  21]
    |psi|^2 = 1.011
==== e(  27) =    19.78342 eV ==== 
     psi = 0.272*[#  31]+0.086*[#   1]+0.086*[#   5]+0.051*[#  19]+0.051*[#  20]
          +0.051*[#  21]+0.028*[#   2]+0.028*[#   3]+0.028*[#   4]+0.028*[#   6]
          +0.028*[#   7]+0.028*[#   8]+0.023*[#  13]+0.023*[#  16]+0.007*[#  32]
          +0.007*[#  33]+0.007*[#  34]
    |psi|^2 = 0.834
==== e(  28) =    19.79205 eV ==== 
     psi = 0.285*[#  18]+0.096*[#   1]+0.096*[#   5]+0.055*[#  32]+0.055*[#  33]
          +0.055*[#  34]+0.027*[#   2]+0.027*[#   3]+0.027*[#   4]+0.027*[#   6]
          +0.027*[#   7]+0.027*[#   8]+0.007*[#  19]+0.007*[#  20]+0.007*[#  21]
          +0.004*[#  26]+0.004*[#  29]+0.001*[#  13]+0.001*[#  16]
    |psi|^2 = 0.835
==== e(  29) =    26.64413 eV ==== 
     psi = 0.151*[#  31]+0.119*[#  19]+0.119*[#  20]+0.119*[#  21]+0.025*[#  32]
          +0.025*[#  33]+0.025*[#  34]+0.010*[#   2]+0.010*[#   3]+0.010*[#   4]
          +0.010*[#   6]+0.010*[#   7]+0.010*[#   8]+0.004*[#  27]+0.004*[#  28]
          +0.004*[#  30]+0.003*[#   1]+0.003*[#   5]+0.003*[#  22]+0.001*[#  14]
          +0.001*[#  15]+0.001*[#  17]
    |psi|^2 = 0.672
==== e(  30) =    26.72966 eV ==== 
     psi = 0.158*[#  18]+0.119*[#  32]+0.119*[#  33]+0.119*[#  34]+0.026*[#  19]
          +0.026*[#  20]+0.026*[#  21]+0.010*[#   2]+0.010*[#   3]+0.010*[#   4]
          +0.010*[#   6]+0.010*[#   7]+0.010*[#   8]+0.005*[#  14]+0.005*[#  15]
          +0.005*[#  17]+0.003*[#   9]+0.003*[#   1]+0.003*[#   5]
    |psi|^2 = 0.682

 k =  -0.2500000000 -0.2500000000 -0.2500000000
==== e(   1) =   -90.51543 eV ==== 
     psi = 0.981*[#  22]+0.005*[#  19]+0.005*[#  20]+0.005*[#  21]
    |psi|^2 = 1.000
==== e(   2) =   -88.26580 eV ==== 
     psi = 0.981*[#   9]+0.003*[#  32]+0.003*[#  33]+0.003*[#  34]+0.002*[#  19]
          +0.002*[#  20]+0.002*[#  21]
    |psi|^2 = 1.000
==== e(   3) =   -50.89840 eV ==== 
     psi = 0.222*[#  23]+0.222*[#  24]+0.222*[#  25]+0.002*[#  32]+0.002*[#  33]
          +0.002*[#  34]
    |psi|^2 = 0.673
==== e(   4) =   -50.88092 eV ==== 
     psi = 0.136*[#  23]+0.136*[#  24]+0.136*[#  25]+0.002*[#  32]+0.002*[#  33]
          +0.002*[#  34]
    |psi|^2 = 0.417
==== e(   5) =   -50.88092 eV ==== 
     psi = 0.332*[#  23]+0.332*[#  24]+0.332*[#  25]
    |psi|^2 = 1.000
==== e(   6) =   -48.71830 eV ==== 
     psi = 0.222*[#  10]+0.222*[#  11]+0.222*[#  12]+0.092*[#  23]+0.092*[#  24]
          +0.092*[#  25]
    |psi|^2 = 0.944
==== e(   7) =   -48.70197 eV ==== 
     psi = 0.227*[#  10]+0.227*[#  11]+0.227*[#  12]
    |psi|^2 = 0.682
==== e(   8) =   -48.70197 eV ==== 
     psi = 0.438*[#  10]+0.438*[#  11]+0.438*[#  12]
    |psi|^2 = 1.318
==== e(   9) =    -4.98589 eV ==== 
     psi = 0.336*[#   1]+0.336*[#   5]+0.122*[#  31]+0.065*[#  19]+0.065*[#  20]
          +0.065*[#  21]+0.004*[#  22]+0.001*[#   2]+0.001*[#   3]+0.001*[#   4]
          +0.001*[#   6]+0.001*[#   7]+0.001*[#   8]
    |psi|^2 = 1.000
==== e(  10) =    -4.97727 eV ==== 
     psi = 0.337*[#   1]+0.337*[#   5]+0.121*[#  18]+0.043*[#  32]+0.043*[#  33]
          +0.043*[#  34]+0.022*[#  19]+0.022*[#  20]+0.022*[#  21]+0.004*[#   9]
          
    |psi|^2 = 1.000
==== e(  11) =     7.46991 eV ==== 
     psi = 0.165*[#  27]+0.165*[#  28]+0.165*[#  30]+0.101*[#  31]+0.041*[#   2]
          +0.041*[#   3]+0.041*[#   4]+0.041*[#   6]+0.041*[#   7]+0.041*[#   8]
          +0.022*[#  32]+0.022*[#  33]+0.022*[#  34]+0.013*[#   1]+0.013*[#   5]
          +0.001*[#  19]+0.001*[#  20]+0.001*[#  21]+0.001*[#  22]
    |psi|^2 = 0.939
==== e(  12) =     7.59560 eV ==== 
     psi = 0.352*[#  26]+0.352*[#  29]+0.038*[#   2]+0.038*[#   3]+0.038*[#   4]
          +0.038*[#   6]+0.038*[#   7]+0.038*[#   8]+0.023*[#  27]+0.023*[#  28]
          +0.023*[#  30]+0.022*[#  32]+0.022*[#  33]+0.022*[#  34]
    |psi|^2 = 1.065
==== e(  13) =     7.59560 eV ==== 
     psi = 0.352*[#  26]+0.352*[#  29]+0.037*[#   2]+0.037*[#   3]+0.037*[#   4]
          +0.037*[#   6]+0.037*[#   7]+0.037*[#   8]+0.023*[#  27]+0.023*[#  28]
          +0.023*[#  30]
    |psi|^2 = 0.998
==== e(  14) =     7.88139 eV ==== 
     psi = 0.132*[#  18]+0.111*[#  14]+0.111*[#  15]+0.111*[#  17]+0.061*[#   2]
          +0.061*[#   3]+0.061*[#   4]+0.061*[#   6]+0.061*[#   7]+0.061*[#   8]
          +0.017*[#   1]+0.017*[#   5]+0.002*[#   9]+0.001*[#  32]+0.001*[#  33]
          +0.001*[#  34]
    |psi|^2 = 0.869
==== e(  15) =     9.38030 eV ==== 
     psi = 0.300*[#  27]+0.300*[#  28]+0.300*[#  30]+0.047*[#  26]+0.047*[#  29]
          +0.027*[#   2]+0.027*[#   3]+0.027*[#   4]+0.027*[#   6]+0.027*[#   7]
          +0.027*[#   8]
    |psi|^2 = 1.162
==== e(  16) =     9.38030 eV ==== 
     psi = 0.300*[#  27]+0.300*[#  28]+0.300*[#  30]+0.047*[#  26]+0.047*[#  29]
          +0.027*[#   2]+0.027*[#   3]+0.027*[#   4]+0.027*[#   6]+0.027*[#   7]
          +0.027*[#   8]
    |psi|^2 = 1.160
==== e(  17) =     9.91862 eV ==== 
     psi = 0.191*[#  14]+0.191*[#  15]+0.191*[#  17]+0.057*[#   2]+0.057*[#   3]
          +0.057*[#   4]+0.057*[#   6]+0.057*[#   7]+0.057*[#   8]+0.035*[#  13]
          +0.035*[#  16]+0.003*[#  32]+0.003*[#  33]+0.003*[#  34]
    |psi|^2 = 0.993
==== e(  18) =     9.91862 eV ==== 
     psi = 0.191*[#  14]+0.191*[#  15]+0.191*[#  17]+0.042*[#   2]+0.042*[#   3]
          +0.042*[#   4]+0.042*[#   6]+0.042*[#   7]+0.042*[#   8]+0.035*[#  13]
          +0.035*[#  16]+0.003*[#  32]+0.003*[#  33]+0.003*[#  34]
    |psi|^2 = 0.899
==== e(  19) =    10.75551 eV ==== 
     psi = 0.163*[#  27]+0.163*[#  28]+0.163*[#  30]+0.088*[#  31]+0.077*[#   2]
          +0.077*[#   3]+0.077*[#   4]+0.077*[#   6]+0.077*[#   7]+0.077*[#   8]
          +0.021*[#   1]+0.021*[#   5]+0.002*[#  32]+0.002*[#  33]+0.002*[#  34]
          +0.002*[#  22]
    |psi|^2 = 1.094
==== e(  20) =    11.46594 eV ==== 
     psi = 0.139*[#  14]+0.139*[#  15]+0.139*[#  17]+0.090*[#   2]+0.090*[#   3]
          +0.090*[#   4]+0.090*[#   6]+0.090*[#   7]+0.090*[#   8]+0.068*[#  13]
          +0.068*[#  16]+0.002*[#  32]+0.002*[#  33]+0.002*[#  34]
    |psi|^2 = 1.101
==== e(  21) =    11.46594 eV ==== 
     psi = 0.139*[#  14]+0.139*[#  15]+0.139*[#  17]+0.073*[#   2]+0.073*[#   3]
          +0.073*[#   4]+0.073*[#   6]+0.073*[#   7]+0.073*[#   8]+0.068*[#  13]
          +0.068*[#  16]
    |psi|^2 = 0.996
==== e(  22) =    11.51512 eV ==== 
     psi = 0.215*[#  14]+0.215*[#  15]+0.215*[#  17]+0.055*[#  18]+0.040*[#   2]
          +0.040*[#   3]+0.040*[#   4]+0.040*[#   6]+0.040*[#   7]+0.040*[#   8]
          +0.016*[#   1]+0.016*[#   5]+0.002*[#  32]+0.002*[#  33]+0.002*[#  34]
          +0.001*[#   9]
    |psi|^2 = 0.976
==== e(  23) =    13.14068 eV ==== 
     psi = 0.130*[#   2]+0.130*[#   3]+0.130*[#   4]+0.130*[#   6]+0.130*[#   7]
          +0.130*[#   8]+0.100*[#  26]+0.100*[#  29]+0.009*[#  27]+0.009*[#  28]
          +0.009*[#  30]+0.006*[#  19]+0.006*[#  20]+0.006*[#  21]
    |psi|^2 = 1.027
==== e(  24) =    13.14068 eV ==== 
     psi = 0.100*[#  26]+0.100*[#  29]+0.065*[#   2]+0.065*[#   3]+0.065*[#   4]
          +0.065*[#   6]+0.065*[#   7]+0.065*[#   8]+0.009*[#  27]+0.009*[#  28]
          +0.009*[#  30]+0.002*[#  19]+0.002*[#  20]+0.002*[#  21]
    |psi|^2 = 0.627
==== e(  25) =    16.22135 eV ==== 
     psi = 0.393*[#  13]+0.393*[#  16]+0.032*[#   2]+0.032*[#   3]+0.032*[#   4]
          +0.032*[#   6]+0.032*[#   7]+0.032*[#   8]+0.005*[#  32]+0.005*[#  33]
          +0.005*[#  34]
    |psi|^2 = 0.997
==== e(  26) =    16.22135 eV ==== 
     psi = 0.393*[#  13]+0.393*[#  16]+0.027*[#   2]+0.027*[#   3]+0.027*[#   4]
          +0.027*[#   6]+0.027*[#   7]+0.027*[#   8]+0.004*[#  32]+0.004*[#  33]
          +0.004*[#  34]
    |psi|^2 = 0.961
==== e(  27) =    18.82541 eV ==== 
     psi = 0.287*[#  31]+0.117*[#   1]+0.117*[#   5]+0.066*[#  19]+0.066*[#  20]
          +0.066*[#  21]+0.040*[#   2]+0.040*[#   3]+0.040*[#   4]+0.040*[#   6]
          +0.040*[#   7]+0.040*[#   8]+0.003*[#  32]+0.003*[#  33]+0.003*[#  34]
          +0.001*[#  27]+0.001*[#  28]+0.001*[#  30]+0.001*[#  22]
    |psi|^2 = 0.976
==== e(  28) =    18.95553 eV ==== 
     psi = 0.277*[#  18]+0.119*[#   1]+0.119*[#   5]+0.069*[#  32]+0.069*[#  33]
          +0.069*[#  34]+0.024*[#   2]+0.024*[#   3]+0.024*[#   4]+0.024*[#   6]
          +0.024*[#   7]+0.024*[#   8]+0.002*[#  14]+0.002*[#  15]+0.002*[#  17]
          +0.001*[#   9]
    |psi|^2 = 0.871
==== e(  29) =    26.56703 eV ==== 
     psi = 0.286*[#  31]+0.103*[#  19]+0.103*[#  20]+0.103*[#  21]+0.010*[#   2]
          +0.010*[#   3]+0.010*[#   4]+0.010*[#   6]+0.010*[#   7]+0.010*[#   8]
          +0.007*[#  22]+0.005*[#   1]+0.005*[#   5]+0.004*[#  27]+0.004*[#  28]
          +0.004*[#  30]
    |psi|^2 = 0.684
==== e(  30) =    26.70333 eV ==== 
     psi = 0.296*[#  18]+0.102*[#  32]+0.102*[#  33]+0.102*[#  34]+0.010*[#   2]
          +0.010*[#   3]+0.010*[#   4]+0.010*[#   6]+0.010*[#   7]+0.010*[#   8]
          +0.007*[#   9]+0.005*[#  14]+0.005*[#  15]+0.005*[#  17]+0.004*[#   1]
          +0.004*[#   5]
    |psi|^2 = 0.696

Lowdin Charges: 

     Atom #   1: total charge =   5.8378, s =  1.6351, p =  4.2027, d =  0.0000, 
                 spin up      =   2.9185, s =  0.8175, 
                 spin up      =   2.9185, p =  2.1010, pz=  0.7003, px=  0.7003, py=  0.7003, 
                 spin up      =   2.9185, d =  0.0000, dz2=  0.0000, dxz=  0.0000, dyz=  0.0000, dx2-y2=  0.0000, dxy=  0.0000, 
                 spin down    =   2.9193, s =  0.8175, 
                 spin down    =   2.9193, p =  2.1017, pz=  0.7006, px=  0.7006, py=  0.7006, 
                 spin down    =   2.9193, d =  0.0000, dz2=  0.0000, dxz=  0.0000, dyz=  0.0000, dx2-y2=  0.0000, dxy=  0.0000, 
                 polarization =  -0.0007, s =  0.0000, p = -0.0007, d =  0.0000, 
     Atom #   2: total charge =   5.8378, s =  1.6351, p =  4.2027, d =  0.0000, 
                 spin up      =   2.9185, s =  0.8175, 
                 spin up      =   2.9185, p =  2.1010, pz=  0.7003, px=  0.7003, py=  0.7003, 
                 spin up      =   2.9185, d =  0.0000, dz2=  0.0000, dxz=  0.0000, dyz=  0.0000, dx2-y2=  0.0000, dxy=  0.0000, 
                 spin down    =   2.9193, s =  0.8175, 
                 spin down    =   2.9193, p =  2.1017, pz=  0.7006, px=  0.7006, py=  0.7006, 
                 spin down    =   2.9193, d =  0.0000, dz2=  0.0000, dxz=  0.0000, dyz=  0.0000, dx2-y2=  0.0000, dxy=  0.0000, 
                 polarization =  -0.0007, s =  0.0000, p = -0.0007, d =  0.0000, 
     Atom #   3: total charge =  16.9626, s =  2.3903, p =  6.2944, d =  8.2779, 
                 spin up      =   9.1589, s =  1.1914, 
                 spin up      =   9.1589, p =  3.0137, pz=  1.0046, px=  1.0046, py=  1.0046, 
                 spin up      =   9.1589, d =  4.9537, dz2=  0.9887, dxz=  0.9921, dyz=  0.9921, dx2-y2=  0.9887, dxy=  0.9921, 
                 spin down    =   7.8037, s =  1.1988, 
                 spin down    =   7.8037, p =  3.2807, pz=  1.0936, px=  1.0936, py=  1.0936, 
                 spin down    =   7.8037, d =  3.3241, dz2=  0.1811, dxz=  0.9873, dyz=  0.9873, dx2-y2=  0.1811, dxy=  0.9873, 
                 polarization =   1.3552, s = -0.0074, p = -0.2670, d =  1.6296, 
     Atom #   4: total charge =  16.9613, s =  2.3903, p =  6.2932, d =  8.2779, 
                 spin up      =   7.8037, s =  1.1988, 
                 spin up      =   7.8037, p =  3.2807, pz=  1.0936, px=  1.0936, py=  1.0936, 
                 spin up      =   7.8037, d =  3.3241, dz2=  0.1811, dxz=  0.9873, dyz=  0.9873, dx2-y2=  0.1811, dxy=  0.9873, 
                 spin down    =   9.1577, s =  1.1914, 
                 spin down    =   9.1577, p =  3.0125, pz=  1.0042, px=  1.0042, py=  1.0042, 
                 spin down    =   9.1577, d =  4.9537, dz2=  0.9887, dxz=  0.9921, dyz=  0.9921, dx2-y2=  0.9887, dxy=  0.9921, 
                 polarization =  -1.3540, s =  0.0074, p =  0.2682, d = -1.6296, 
     Spilling Parameter:   0.0500

     PROJWFC      :      8.82s CPU      9.72s WALL


   This run was terminated on:  20: 1: 3   1Feb2022            

=------------------------------------------------------------------------------=
   JOB DONE.
=------------------------------------------------------------------------------=
