
     Program PROJWFC v.7.0 starts on  1Feb2022 at 20: 0:31 

     This program is part of the open-source Quantum ESPRESSO suite
     for quantum simulation of materials; please cite
         "P. Giannozzi et al., J. Phys.:Condens. Matter 21 395502 (2009);
         "P. Giannozzi et al., J. Phys.:Condens. Matter 29 465901 (2017);
         "P. Giannozzi et al., J. Chem. Phys. 152 154105 (2020);
          URL http://www.quantum-espresso.org", 
     in publications or presentations arising from this work. More details at
     http://www.quantum-espresso.org/quote

     Parallel version (MPI), running on     1 processors

     MPI processes distributed on     1 nodes
     285 MiB available memory on the printing compute node when the environment starts


     Reading xml data from directory:

     ./nio.save/
     Message from routine volume:
     axis vectors are left-handed

     IMPORTANT: XC functional enforced from input :
     Exchange-correlation= PBE
                           (   1   4   3   4   0   0   0)
     Any further DFT definition will be discarded
     Please, verify this is what you really want


     G-vector sticks info
     --------------------
     sticks:   dense  smooth     PW     G-vecs:    dense   smooth      PW
     Sum        2457     813    283                60755    11627    2381

     Using Slab Decomposition


     Check: negative core charge=   -0.000010

     Gaussian broadening (read from input): ngauss,degauss=   0    0.010000


     Calling projwave .... 

     Subspace diagonalization in iterative solution of the eigenvalue problem:
     a serial algorithm will be used


  Problem Sizes 
  natomwfc =           34
  nbnd     =           30
  nkstot   =          378
  npwx     =         1478
  nkb      =           62


     Atomic states used for projection
     (read from pseudopotential files):

     state #   1: atom   1 (O  ), wfc  1 (l=0 m= 1)
     state #   2: atom   1 (O  ), wfc  2 (l=1 m= 1)
     state #   3: atom   1 (O  ), wfc  2 (l=1 m= 2)
     state #   4: atom   1 (O  ), wfc  2 (l=1 m= 3)
     state #   5: atom   2 (O  ), wfc  1 (l=0 m= 1)
     state #   6: atom   2 (O  ), wfc  2 (l=1 m= 1)
     state #   7: atom   2 (O  ), wfc  2 (l=1 m= 2)
     state #   8: atom   2 (O  ), wfc  2 (l=1 m= 3)
     state #   9: atom   3 (Ni1), wfc  1 (l=0 m= 1)
     state #  10: atom   3 (Ni1), wfc  2 (l=1 m= 1)
     state #  11: atom   3 (Ni1), wfc  2 (l=1 m= 2)
     state #  12: atom   3 (Ni1), wfc  2 (l=1 m= 3)
     state #  13: atom   3 (Ni1), wfc  3 (l=2 m= 1)
     state #  14: atom   3 (Ni1), wfc  3 (l=2 m= 2)
     state #  15: atom   3 (Ni1), wfc  3 (l=2 m= 3)
     state #  16: atom   3 (Ni1), wfc  3 (l=2 m= 4)
     state #  17: atom   3 (Ni1), wfc  3 (l=2 m= 5)
     state #  18: atom   3 (Ni1), wfc  4 (l=0 m= 1)
     state #  19: atom   3 (Ni1), wfc  5 (l=1 m= 1)
     state #  20: atom   3 (Ni1), wfc  5 (l=1 m= 2)
     state #  21: atom   3 (Ni1), wfc  5 (l=1 m= 3)
     state #  22: atom   4 (Ni2), wfc  1 (l=0 m= 1)
     state #  23: atom   4 (Ni2), wfc  2 (l=1 m= 1)
     state #  24: atom   4 (Ni2), wfc  2 (l=1 m= 2)
     state #  25: atom   4 (Ni2), wfc  2 (l=1 m= 3)
     state #  26: atom   4 (Ni2), wfc  3 (l=2 m= 1)
     state #  27: atom   4 (Ni2), wfc  3 (l=2 m= 2)
     state #  28: atom   4 (Ni2), wfc  3 (l=2 m= 3)
     state #  29: atom   4 (Ni2), wfc  3 (l=2 m= 4)
     state #  30: atom   4 (Ni2), wfc  3 (l=2 m= 5)
     state #  31: atom   4 (Ni2), wfc  4 (l=0 m= 1)
     state #  32: atom   4 (Ni2), wfc  5 (l=1 m= 1)
     state #  33: atom   4 (Ni2), wfc  5 (l=1 m= 2)
     state #  34: atom   4 (Ni2), wfc  5 (l=1 m= 3)

 k =   0.0000000000  0.0000000000  0.0000000000
==== e(   1) =   -89.99573 eV ==== 
     psi = 0.993*[#   9]+0.002*[#  31]
    |psi|^2 = 1.000
==== e(   2) =   -88.13022 eV ==== 
     psi = 0.993*[#  22]+0.002*[#  18]
    |psi|^2 = 1.000
==== e(   3) =   -50.39991 eV ==== 
     psi = 0.221*[#  10]+0.221*[#  11]+0.221*[#  12]
    |psi|^2 = 0.668
==== e(   4) =   -50.36812 eV ==== 
     psi = 0.111*[#  10]+0.111*[#  11]+0.111*[#  12]
    |psi|^2 = 0.336
==== e(   5) =   -50.36812 eV ==== 
     psi = 0.332*[#  10]+0.332*[#  11]+0.332*[#  12]
    |psi|^2 = 1.000
==== e(   6) =   -48.58661 eV ==== 
     psi = 0.221*[#  23]+0.221*[#  24]+0.221*[#  25]+0.160*[#  10]+0.160*[#  11]
          +0.160*[#  12]+0.001*[#  19]+0.001*[#  20]+0.001*[#  21]
    |psi|^2 = 1.148
==== e(   7) =   -48.56709 eV ==== 
     psi = 0.243*[#  23]+0.243*[#  24]+0.243*[#  25]
    |psi|^2 = 0.732
==== e(   8) =   -48.56709 eV ==== 
     psi = 0.422*[#  23]+0.422*[#  24]+0.422*[#  25]
    |psi|^2 = 1.268
==== e(   9) =    -5.94094 eV ==== 
     psi = 0.341*[#   1]+0.341*[#   5]+0.157*[#  18]+0.156*[#  31]+0.002*[#   9]
          +0.002*[#  22]
    |psi|^2 = 1.000
==== e(  10) =    -4.52049 eV ==== 
     psi = 0.371*[#   1]+0.371*[#   5]+0.028*[#  19]+0.028*[#  20]+0.028*[#  21]
          +0.028*[#  32]+0.028*[#  33]+0.028*[#  34]
    |psi|^2 = 0.914
==== e(  11) =     6.17532 eV ==== 
     psi = 0.125*[#  31]+0.122*[#  18]+0.070*[#   2]+0.070*[#   3]+0.070*[#   4]
          +0.070*[#   6]+0.070*[#   7]+0.070*[#   8]+0.022*[#  14]+0.022*[#  15]
          +0.022*[#  17]+0.018*[#  27]+0.018*[#  28]+0.018*[#  30]+0.014*[#  19]
          +0.014*[#  20]+0.014*[#  21]+0.014*[#  32]+0.014*[#  33]+0.014*[#  34]
          +0.002*[#  22]+0.002*[#   9]
    |psi|^2 = 0.875
==== e(  12) =     8.83408 eV ==== 
     psi = 0.150*[#  13]+0.150*[#  16]+0.049*[#  26]+0.049*[#  29]+0.031*[#   2]
          +0.031*[#   3]+0.031*[#   4]+0.031*[#   6]+0.031*[#   7]+0.031*[#   8]
          +0.014*[#  19]+0.014*[#  20]+0.014*[#  21]+0.014*[#  32]+0.014*[#  33]
          +0.014*[#  34]+0.010*[#  14]+0.010*[#  15]+0.010*[#  17]+0.006*[#  27]
          +0.006*[#  28]+0.006*[#  30]
    |psi|^2 = 0.716
==== e(  13) =     8.83408 eV ==== 
     psi = 0.150*[#  13]+0.150*[#  16]+0.092*[#   2]+0.092*[#   3]+0.092*[#   4]
          +0.092*[#   6]+0.092*[#   7]+0.092*[#   8]+0.049*[#  26]+0.049*[#  29]
          +0.010*[#  14]+0.010*[#  15]+0.010*[#  17]+0.006*[#  27]+0.006*[#  28]
          +0.006*[#  30]
    |psi|^2 = 0.997
==== e(  14) =    11.43552 eV ==== 
     psi = 0.112*[#   2]+0.112*[#   3]+0.112*[#   4]+0.112*[#   6]+0.112*[#   7]
          +0.112*[#   8]+0.002*[#  19]+0.002*[#  20]+0.002*[#  21]+0.002*[#  32]
          +0.002*[#  33]+0.002*[#  34]
    |psi|^2 = 0.683
==== e(  15) =    11.43552 eV ==== 
     psi = 0.245*[#   2]+0.245*[#   3]+0.245*[#   4]+0.245*[#   6]+0.245*[#   7]
          +0.245*[#   8]+0.008*[#  19]+0.008*[#  20]+0.008*[#  21]+0.008*[#  32]
          +0.008*[#  33]+0.008*[#  34]
    |psi|^2 = 1.517
==== e(  16) =    11.44265 eV ==== 
     psi = 0.128*[#   2]+0.128*[#   3]+0.128*[#   4]+0.128*[#   6]+0.128*[#   7]
          +0.128*[#   8]+0.004*[#  32]+0.004*[#  33]+0.004*[#  34]+0.004*[#  19]
          +0.004*[#  20]+0.004*[#  21]
    |psi|^2 = 0.795
==== e(  17) =    11.92582 eV ==== 
     psi = 0.274*[#  14]+0.274*[#  15]+0.274*[#  17]+0.039*[#  13]+0.039*[#  16]
          +0.028*[#  27]+0.028*[#  28]+0.028*[#  30]+0.003*[#  26]+0.003*[#  29]
          
    |psi|^2 = 0.992
==== e(  18) =    11.92582 eV ==== 
     psi = 0.274*[#  14]+0.274*[#  15]+0.274*[#  17]+0.039*[#  13]+0.039*[#  16]
          +0.028*[#  27]+0.028*[#  28]+0.028*[#  30]+0.003*[#  26]+0.003*[#  29]
          
    |psi|^2 = 0.992
==== e(  19) =    12.01883 eV ==== 
     psi = 0.254*[#  14]+0.254*[#  15]+0.254*[#  17]+0.070*[#  27]+0.070*[#  28]
          +0.070*[#  30]+0.002*[#   2]+0.002*[#   3]+0.002*[#   4]+0.002*[#   6]
          +0.002*[#   7]+0.002*[#   8]+0.001*[#  18]+0.001*[#  31]
    |psi|^2 = 0.986
==== e(  20) =    12.36963 eV ==== 
     psi = 0.252*[#  13]+0.252*[#  16]+0.133*[#  26]+0.133*[#  29]+0.041*[#  27]
          +0.041*[#  28]+0.041*[#  30]+0.008*[#  14]+0.008*[#  15]+0.008*[#  17]
          +0.004*[#   2]+0.004*[#   3]+0.004*[#   4]+0.004*[#   6]+0.004*[#   7]
          +0.004*[#   8]
    |psi|^2 = 0.943
==== e(  21) =    12.36963 eV ==== 
     psi = 0.252*[#  13]+0.252*[#  16]+0.133*[#  26]+0.133*[#  29]+0.041*[#  27]
          +0.041*[#  28]+0.041*[#  30]+0.013*[#   2]+0.013*[#   3]+0.013*[#   4]
          +0.013*[#   6]+0.013*[#   7]+0.013*[#   8]+0.008*[#  14]+0.008*[#  15]
          +0.008*[#  17]
    |psi|^2 = 0.994
==== e(  22) =    13.31009 eV ==== 
     psi = 0.251*[#  27]+0.251*[#  28]+0.251*[#  30]+0.051*[#  26]+0.051*[#  29]
          +0.037*[#  14]+0.037*[#  15]+0.037*[#  17]+0.008*[#   2]+0.008*[#   3]
          +0.008*[#   4]+0.008*[#   6]+0.008*[#   7]+0.008*[#   8]+0.002*[#  13]
          +0.002*[#  16]
    |psi|^2 = 1.018
==== e(  23) =    13.31009 eV ==== 
     psi = 0.251*[#  27]+0.251*[#  28]+0.251*[#  30]+0.051*[#  26]+0.051*[#  29]
          +0.037*[#  14]+0.037*[#  15]+0.037*[#  17]+0.006*[#   2]+0.006*[#   3]
          +0.006*[#   4]+0.006*[#   6]+0.006*[#   7]+0.006*[#   8]+0.002*[#  13]
          +0.002*[#  16]
    |psi|^2 = 1.011
==== e(  24) =    13.58272 eV ==== 
     psi = 0.241*[#  27]+0.241*[#  28]+0.241*[#  30]+0.054*[#  14]+0.054*[#  15]
          +0.054*[#  17]+0.012*[#   2]+0.012*[#   3]+0.012*[#   4]+0.012*[#   6]
          +0.012*[#   7]+0.012*[#   8]+0.006*[#  31]+0.006*[#  18]
    |psi|^2 = 0.969
==== e(  25) =    15.85726 eV ==== 
     psi = 0.262*[#  26]+0.262*[#  29]+0.058*[#   2]+0.058*[#   3]+0.058*[#   4]
          +0.058*[#   6]+0.058*[#   7]+0.058*[#   8]+0.056*[#  13]+0.056*[#  16]
          +0.004*[#  27]+0.004*[#  28]+0.004*[#  30]+0.002*[#  14]+0.002*[#  15]
          +0.002*[#  17]
    |psi|^2 = 0.998
==== e(  26) =    15.85726 eV ==== 
     psi = 0.262*[#  26]+0.262*[#  29]+0.067*[#   2]+0.067*[#   3]+0.067*[#   4]
          +0.067*[#   6]+0.067*[#   7]+0.067*[#   8]+0.056*[#  13]+0.056*[#  16]
          +0.004*[#  27]+0.004*[#  28]+0.004*[#  30]+0.002*[#  14]+0.002*[#  15]
          +0.002*[#  17]
    |psi|^2 = 1.054
==== e(  27) =    16.02500 eV ==== 
     psi = 0.348*[#  18]+0.331*[#  31]+0.157*[#   1]+0.157*[#   5]
    |psi|^2 = 0.995
==== e(  28) =    20.00176 eV ==== 
     psi = 0.120*[#   1]+0.120*[#   5]+0.079*[#  19]+0.079*[#  20]+0.079*[#  21]
          +0.078*[#  32]+0.078*[#  33]+0.078*[#  34]+0.029*[#   2]+0.029*[#   3]
          +0.029*[#   4]+0.029*[#   6]+0.029*[#   7]+0.029*[#   8]
    |psi|^2 = 0.886
==== e(  29) =    24.52661 eV ==== 
     psi = 0.356*[#  31]+0.344*[#  18]+0.041*[#   2]+0.041*[#   3]+0.041*[#   4]
          +0.041*[#   6]+0.041*[#   7]+0.041*[#   8]+0.002*[#   9]+0.002*[#  22]
          +0.001*[#  27]+0.001*[#  28]+0.001*[#  30]
    |psi|^2 = 0.955
==== e(  30) =    28.49380 eV ==== 
     psi = 0.160*[#  19]+0.160*[#  20]+0.160*[#  21]+0.151*[#  32]+0.151*[#  33]
          +0.151*[#  34]
    |psi|^2 = 0.935

 k =   0.1250000000 -0.0416666667 -0.0416666667
==== e(   1) =   -89.99561 eV ==== 
     psi = 0.991*[#   9]+0.001*[#  31]
    |psi|^2 = 1.000
==== e(   2) =   -88.13009 eV ==== 
     psi = 0.991*[#  22]+0.001*[#  18]
    |psi|^2 = 1.002
==== e(   3) =   -50.39969 eV ==== 
     psi = 0.221*[#  10]+0.221*[#  11]+0.221*[#  12]
    |psi|^2 = 0.668
==== e(   4) =   -50.36969 eV ==== 
     psi = 0.277*[#  10]+0.277*[#  11]+0.277*[#  12]
    |psi|^2 = 0.837
==== e(   5) =   -50.36852 eV ==== 
     psi = 0.333*[#  10]+0.333*[#  11]+0.333*[#  12]
    |psi|^2 = 1.000
==== e(   6) =   -48.58638 eV ==== 
     psi = 0.221*[#  23]+0.221*[#  24]+0.221*[#  25]
    |psi|^2 = 0.666
==== e(   7) =   -48.56884 eV ==== 
     psi = 0.388*[#  23]+0.388*[#  24]+0.388*[#  25]
    |psi|^2 = 1.168
==== e(   8) =   -48.56753 eV ==== 
     psi = 0.277*[#  23]+0.277*[#  24]+0.277*[#  25]
    |psi|^2 = 0.832
==== e(   9) =    -5.86679 eV ==== 
     psi = 0.339*[#   1]+0.339*[#   5]+0.140*[#  18]+0.139*[#  31]+0.006*[#  19]
          +0.006*[#  20]+0.006*[#  21]+0.006*[#  32]+0.006*[#  33]+0.006*[#  34]
          +0.002*[#   9]+0.002*[#  22]
    |psi|^2 = 1.000
==== e(  10) =    -4.50892 eV ==== 
     psi = 0.375*[#   1]+0.375*[#   5]+0.032*[#  19]+0.032*[#  20]+0.032*[#  21]
          +0.031*[#  32]+0.031*[#  33]+0.031*[#  34]
    |psi|^2 = 0.945
==== e(  11) =     6.29996 eV ==== 
     psi = 0.116*[#  31]+0.114*[#  18]+0.069*[#   2]+0.069*[#   3]+0.069*[#   4]
          +0.069*[#   6]+0.069*[#   7]+0.069*[#   8]+0.022*[#  14]+0.022*[#  15]
          +0.022*[#  17]+0.017*[#  19]+0.017*[#  20]+0.017*[#  21]+0.017*[#  32]
          +0.017*[#  33]+0.017*[#  34]+0.017*[#  27]+0.017*[#  28]+0.017*[#  30]
          +0.002*[#  22]+0.002*[#   9]
    |psi|^2 = 0.868
==== e(  12) =     8.79156 eV ==== 
     psi = 0.139*[#  13]+0.139*[#  16]+0.078*[#   2]+0.078*[#   3]+0.078*[#   4]
          +0.078*[#   6]+0.078*[#   7]+0.078*[#   8]+0.042*[#  26]+0.042*[#  29]
          +0.015*[#  32]+0.015*[#  33]+0.015*[#  34]+0.015*[#  19]+0.015*[#  20]
          +0.015*[#  21]+0.011*[#  14]+0.011*[#  15]+0.011*[#  17]+0.007*[#  27]
          +0.007*[#  28]+0.007*[#  30]
    |psi|^2 = 0.980
==== e(  13) =     8.85466 eV ==== 
     psi = 0.150*[#  13]+0.150*[#  16]+0.092*[#   2]+0.092*[#   3]+0.092*[#   4]
          +0.092*[#   6]+0.092*[#   7]+0.092*[#   8]+0.049*[#  26]+0.049*[#  29]
          +0.008*[#  14]+0.008*[#  15]+0.008*[#  17]+0.005*[#  27]+0.005*[#  28]
          +0.005*[#  30]
    |psi|^2 = 0.997
==== e(  14) =    10.65764 eV ==== 
     psi = 0.118*[#   2]+0.118*[#   3]+0.118*[#   4]+0.118*[#   6]+0.118*[#   7]
          +0.118*[#   8]+0.043*[#  13]+0.043*[#  16]+0.036*[#  26]+0.036*[#  29]
          +0.019*[#  18]+0.016*[#  31]+0.013*[#  14]+0.013*[#  15]+0.013*[#  17]
          +0.009*[#   1]+0.009*[#   5]+0.002*[#  19]+0.002*[#  20]+0.002*[#  21]
          +0.002*[#  27]+0.002*[#  28]+0.002*[#  30]+0.001*[#  32]+0.001*[#  33]
          +0.001*[#  34]
    |psi|^2 = 0.973
==== e(  15) =    11.10602 eV ==== 
     psi = 0.065*[#   2]+0.065*[#   3]+0.065*[#   4]+0.065*[#   6]+0.065*[#   7]
          +0.065*[#   8]+0.043*[#  14]+0.043*[#  15]+0.043*[#  17]+0.022*[#  13]
          +0.022*[#  16]+0.013*[#  26]+0.013*[#  29]+0.010*[#  27]+0.010*[#  28]
          +0.010*[#  30]+0.003*[#  19]+0.003*[#  20]+0.003*[#  21]+0.002*[#  32]
          +0.002*[#  33]+0.002*[#  34]
    |psi|^2 = 0.635
==== e(  16) =    11.10761 eV ==== 
     psi = 0.182*[#   2]+0.182*[#   3]+0.182*[#   4]+0.182*[#   6]+0.182*[#   7]
          +0.182*[#   8]+0.026*[#  14]+0.026*[#  15]+0.026*[#  17]+0.017*[#  27]
          +0.017*[#  28]+0.017*[#  30]+0.016*[#  26]+0.016*[#  29]+0.014*[#  13]
          +0.014*[#  16]+0.005*[#  19]+0.005*[#  20]+0.005*[#  21]+0.003*[#  32]
          +0.003*[#  33]+0.003*[#  34]+0.002*[#  18]+0.001*[#  31]
    |psi|^2 = 1.308
==== e(  17) =    11.96827 eV ==== 
     psi = 0.265*[#  14]+0.265*[#  15]+0.265*[#  17]+0.046*[#  27]+0.046*[#  28]
          +0.046*[#  30]+0.014*[#  13]+0.014*[#  16]+0.004*[#   2]+0.004*[#   3]
          +0.004*[#   4]+0.004*[#   6]+0.004*[#   7]+0.004*[#   8]+0.002*[#  18]
          
    |psi|^2 = 0.991
==== e(  18) =    12.16729 eV ==== 
     psi = 0.252*[#  14]+0.252*[#  15]+0.252*[#  17]+0.021*[#  27]+0.021*[#  28]
          +0.021*[#  30]+0.014*[#   2]+0.014*[#   3]+0.014*[#   4]+0.014*[#   6]
          +0.014*[#   7]+0.014*[#   8]+0.007*[#  26]+0.007*[#  29]
    |psi|^2 = 0.921
==== e(  19) =    12.19459 eV ==== 
     psi = 0.240*[#  14]+0.240*[#  15]+0.240*[#  17]+0.034*[#  27]+0.034*[#  28]
          +0.034*[#  30]+0.027*[#   2]+0.027*[#   3]+0.027*[#   4]+0.027*[#   6]
          +0.027*[#   7]+0.027*[#   8]+0.011*[#  13]+0.011*[#  16]+0.007*[#  31]
          +0.002*[#   1]+0.002*[#   5]
    |psi|^2 = 1.023
==== e(  20) =    12.44226 eV ==== 
     psi = 0.267*[#  13]+0.267*[#  16]+0.114*[#  26]+0.114*[#  29]+0.035*[#  27]
          +0.035*[#  28]+0.035*[#  30]+0.010*[#   2]+0.010*[#   3]+0.010*[#   4]
          +0.010*[#   6]+0.010*[#   7]+0.010*[#   8]
    |psi|^2 = 0.932
==== e(  21) =    12.77028 eV ==== 
     psi = 0.211*[#  13]+0.211*[#  16]+0.070*[#  27]+0.070*[#  28]+0.070*[#  30]
          +0.046*[#  26]+0.046*[#  29]+0.041*[#   2]+0.041*[#   3]+0.041*[#   4]
          +0.041*[#   6]+0.041*[#   7]+0.041*[#   8]+0.004*[#  31]+0.003*[#  32]
          +0.003*[#  33]+0.003*[#  34]+0.003*[#   1]+0.003*[#   5]+0.003*[#  18]
          
    |psi|^2 = 0.995
==== e(  22) =    13.34689 eV ==== 
     psi = 0.256*[#  27]+0.256*[#  28]+0.256*[#  30]+0.046*[#  26]+0.046*[#  29]
          +0.031*[#   2]+0.031*[#   3]+0.031*[#   4]+0.031*[#   6]+0.031*[#   7]
          +0.031*[#   8]+0.025*[#  14]+0.025*[#  15]+0.025*[#  17]+0.005*[#  13]
          +0.005*[#  16]+0.003*[#  32]+0.003*[#  33]+0.003*[#  34]
    |psi|^2 = 1.141
==== e(  23) =    13.35366 eV ==== 
     psi = 0.213*[#  27]+0.213*[#  28]+0.213*[#  30]+0.068*[#  26]+0.068*[#  29]
          +0.033*[#  14]+0.033*[#  15]+0.033*[#  17]+0.019*[#  13]+0.019*[#  16]
          +0.014*[#   2]+0.014*[#   3]+0.014*[#   4]+0.014*[#   6]+0.014*[#   7]
          +0.014*[#   8]+0.003*[#  31]+0.001*[#   1]+0.001*[#   5]
    |psi|^2 = 1.006
==== e(  24) =    13.57187 eV ==== 
     psi = 0.246*[#  27]+0.246*[#  28]+0.246*[#  30]+0.048*[#  14]+0.048*[#  15]
          +0.048*[#  17]+0.012*[#   2]+0.012*[#   3]+0.012*[#   4]+0.012*[#   6]
          +0.012*[#   7]+0.012*[#   8]+0.008*[#  18]+0.004*[#  31]+0.002*[#  26]
          +0.002*[#  29]
    |psi|^2 = 0.969
==== e(  25) =    15.59791 eV ==== 
     psi = 0.281*[#  26]+0.281*[#  29]+0.046*[#   2]+0.046*[#   3]+0.046*[#   4]
          +0.046*[#   6]+0.046*[#   7]+0.046*[#   8]+0.045*[#  13]+0.045*[#  16]
          +0.008*[#   1]+0.008*[#   5]+0.006*[#  27]+0.006*[#  28]+0.006*[#  30]
          +0.005*[#  18]+0.004*[#  19]+0.004*[#  20]+0.004*[#  21]+0.003*[#  14]
          +0.003*[#  15]+0.003*[#  17]+0.003*[#  32]+0.003*[#  33]+0.003*[#  34]
          +0.001*[#  31]
    |psi|^2 = 0.998
==== e(  26) =    15.80907 eV ==== 
     psi = 0.270*[#  26]+0.270*[#  29]+0.059*[#   2]+0.059*[#   3]+0.059*[#   4]
          +0.059*[#   6]+0.059*[#   7]+0.059*[#   8]+0.054*[#  13]+0.054*[#  16]
          +0.003*[#  19]+0.003*[#  20]+0.003*[#  21]+0.003*[#  27]+0.003*[#  28]
          +0.003*[#  30]+0.002*[#  32]+0.002*[#  33]+0.002*[#  34]+0.002*[#  14]
          +0.002*[#  15]+0.002*[#  17]
    |psi|^2 = 1.033
==== e(  27) =    16.50492 eV ==== 
     psi = 0.298*[#  18]+0.285*[#  31]+0.142*[#   1]+0.142*[#   5]+0.038*[#   2]
          +0.038*[#   3]+0.038*[#   4]+0.038*[#   6]+0.038*[#   7]+0.038*[#   8]
          +0.009*[#  19]+0.009*[#  20]+0.009*[#  21]+0.008*[#  32]+0.008*[#  33]
          +0.008*[#  34]+0.003*[#  26]+0.003*[#  29]
    |psi|^2 = 1.153
==== e(  28) =    20.44575 eV ==== 
     psi = 0.107*[#   1]+0.107*[#   5]+0.075*[#  19]+0.075*[#  20]+0.075*[#  21]
          +0.074*[#  32]+0.074*[#  33]+0.074*[#  34]+0.005*[#   2]+0.005*[#   3]
          +0.005*[#   4]+0.005*[#   6]+0.005*[#   7]+0.005*[#   8]+0.002*[#  26]
          +0.002*[#  29]+0.001*[#  13]+0.001*[#  16]
    |psi|^2 = 0.703
==== e(  29) =    24.42563 eV ==== 
     psi = 0.356*[#  31]+0.345*[#  18]+0.040*[#   2]+0.040*[#   3]+0.040*[#   4]
          +0.040*[#   6]+0.040*[#   7]+0.040*[#   8]+0.002*[#   9]+0.002*[#  22]
          +0.001*[#  27]+0.001*[#  28]+0.001*[#  30]+0.001*[#  32]+0.001*[#  33]
          +0.001*[#  34]
    |psi|^2 = 0.959
==== e(  30) =    27.88785 eV ==== 
     psi = 0.151*[#  19]+0.151*[#  20]+0.151*[#  21]+0.142*[#  32]+0.142*[#  33]
          +0.142*[#  34]+0.011*[#  18]+0.010*[#  31]+0.003*[#   2]+0.003*[#   3]
          +0.003*[#   4]+0.003*[#   6]+0.003*[#   7]+0.003*[#   8]
    |psi|^2 = 0.920

 k =   0.2500000000 -0.0833333333 -0.0833333333
==== e(   1) =   -89.99527 eV ==== 
     psi = 0.988*[#   9]+0.002*[#  19]+0.002*[#  20]+0.002*[#  21]
    |psi|^2 = 1.000
==== e(   2) =   -88.12972 eV ==== 
     psi = 0.988*[#  22]+0.002*[#  32]+0.002*[#  33]+0.002*[#  34]+0.002*[#  19]
          +0.002*[#  20]+0.002*[#  21]
    |psi|^2 = 1.005
==== e(   3) =   -50.39908 eV ==== 
     psi = 0.221*[#  10]+0.221*[#  11]+0.221*[#  12]
    |psi|^2 = 0.668
==== e(   4) =   -50.37395 eV ==== 
     psi = 0.278*[#  10]+0.278*[#  11]+0.278*[#  12]+0.001*[#  32]+0.001*[#  33]
          +0.001*[#  34]
    |psi|^2 = 0.842
==== e(   5) =   -50.36960 eV ==== 
     psi = 0.333*[#  10]+0.333*[#  11]+0.333*[#  12]
    |psi|^2 = 1.000
==== e(   6) =   -48.58575 eV ==== 
     psi = 0.221*[#  23]+0.221*[#  24]+0.221*[#  25]
    |psi|^2 = 0.664
==== e(   7) =   -48.57361 eV ==== 
     psi = 0.390*[#  23]+0.390*[#  24]+0.390*[#  25]
    |psi|^2 = 1.173
==== e(   8) =   -48.56874 eV ==== 
     psi = 0.275*[#  23]+0.275*[#  24]+0.275*[#  25]
    |psi|^2 = 0.827
==== e(   9) =    -5.65742 eV ==== 
     psi = 0.337*[#   1]+0.337*[#   5]+0.103*[#  18]+0.102*[#  31]+0.019*[#  19]
          +0.019*[#  20]+0.019*[#  21]+0.019*[#  32]+0.019*[#  33]+0.019*[#  34]
          +0.002*[#   9]+0.002*[#  22]
    |psi|^2 = 1.000
==== e(  10) =    -4.47612 eV ==== 
     psi = 0.386*[#   1]+0.386*[#   5]+0.036*[#  19]+0.036*[#  20]+0.036*[#  21]
          +0.036*[#  32]+0.036*[#  33]+0.036*[#  34]+0.003*[#  13]+0.003*[#  16]
          +0.003*[#  26]+0.003*[#  29]
    |psi|^2 = 1.006
==== e(  11) =     6.64634 eV ==== 
     psi = 0.097*[#  31]+0.094*[#  18]+0.066*[#   2]+0.066*[#   3]+0.066*[#   4]
          +0.066*[#   6]+0.066*[#   7]+0.066*[#   8]+0.023*[#  32]+0.023*[#  33]
          +0.023*[#  34]+0.023*[#  19]+0.023*[#  20]+0.023*[#  21]+0.021*[#  14]
          +0.021*[#  15]+0.021*[#  17]+0.016*[#  27]+0.016*[#  28]+0.016*[#  30]
          +0.002*[#  13]+0.002*[#  16]+0.002*[#  22]+0.002*[#   9]
    |psi|^2 = 0.846
==== e(  12) =     8.64867 eV ==== 
     psi = 0.110*[#  13]+0.110*[#  16]+0.084*[#   2]+0.084*[#   3]+0.084*[#   4]
          +0.084*[#   6]+0.084*[#   7]+0.084*[#   8]+0.022*[#  26]+0.022*[#  29]
          +0.020*[#  19]+0.020*[#  20]+0.020*[#  21]+0.019*[#  32]+0.019*[#  33]
          +0.019*[#  34]+0.013*[#  14]+0.013*[#  15]+0.013*[#  17]+0.010*[#  27]
          +0.010*[#  28]+0.010*[#  30]+0.002*[#  31]+0.001*[#   1]+0.001*[#   5]
          
    |psi|^2 = 0.961
==== e(  13) =     8.90888 eV ==== 
     psi = 0.151*[#  13]+0.151*[#  16]+0.094*[#   2]+0.094*[#   3]+0.094*[#   4]
          +0.094*[#   6]+0.094*[#   7]+0.094*[#   8]+0.046*[#  26]+0.046*[#  29]
          +0.004*[#  14]+0.004*[#  15]+0.004*[#  17]+0.004*[#  27]+0.004*[#  28]
          +0.004*[#  30]+0.003*[#  32]+0.003*[#  33]+0.003*[#  34]+0.002*[#  19]
          +0.002*[#  20]+0.002*[#  21]
    |psi|^2 = 0.997
==== e(  14) =     9.51075 eV ==== 
     psi = 0.106*[#   2]+0.106*[#   3]+0.106*[#   4]+0.106*[#   6]+0.106*[#   7]
          +0.106*[#   8]+0.043*[#  26]+0.043*[#  29]+0.042*[#  18]+0.036*[#  13]
          +0.036*[#  16]+0.031*[#  31]+0.019*[#   1]+0.019*[#   5]+0.015*[#  14]
          +0.015*[#  15]+0.015*[#  17]+0.003*[#  27]+0.003*[#  28]+0.003*[#  30]
          +0.001*[#  32]+0.001*[#  33]+0.001*[#  34]
    |psi|^2 = 0.960
==== e(  15) =    10.54879 eV ==== 
     psi = 0.067*[#   2]+0.067*[#   3]+0.067*[#   4]+0.067*[#   6]+0.067*[#   7]
          +0.067*[#   8]+0.031*[#  13]+0.031*[#  16]+0.027*[#  26]+0.027*[#  29]
          +0.026*[#  14]+0.026*[#  15]+0.026*[#  17]+0.024*[#  27]+0.024*[#  28]
          +0.024*[#  30]+0.005*[#  31]+0.004*[#  18]+0.004*[#  19]+0.004*[#  20]
          +0.004*[#  21]+0.003*[#  32]+0.003*[#  33]+0.003*[#  34]+0.001*[#   1]
          +0.001*[#   5]
    |psi|^2 = 0.699
==== e(  16) =    10.63223 eV ==== 
     psi = 0.156*[#   2]+0.156*[#   3]+0.156*[#   4]+0.156*[#   6]+0.156*[#   7]
          +0.156*[#   8]+0.044*[#  14]+0.044*[#  15]+0.044*[#  17]+0.030*[#  13]
          +0.030*[#  16]+0.027*[#  26]+0.027*[#  29]+0.013*[#  27]+0.013*[#  28]
          +0.013*[#  30]+0.004*[#  19]+0.004*[#  20]+0.004*[#  21]+0.003*[#  32]
          +0.003*[#  33]+0.003*[#  34]
    |psi|^2 = 1.243
==== e(  17) =    11.94007 eV ==== 
     psi = 0.263*[#  14]+0.263*[#  15]+0.263*[#  17]+0.042*[#  27]+0.042*[#  28]
          +0.042*[#  30]+0.020*[#  13]+0.020*[#  16]+0.005*[#   2]+0.005*[#   3]
          +0.005*[#   4]+0.005*[#   6]+0.005*[#   7]+0.005*[#   8]+0.004*[#  18]
          +0.001*[#   1]+0.001*[#   5]
    |psi|^2 = 0.990
==== e(  18) =    12.34540 eV ==== 
     psi = 0.229*[#  14]+0.229*[#  15]+0.229*[#  17]+0.048*[#  26]+0.048*[#  29]
          +0.039*[#  13]+0.039*[#  16]+0.016*[#  27]+0.016*[#  28]+0.016*[#  30]
          +0.008*[#   2]+0.008*[#   3]+0.008*[#   4]+0.008*[#   6]+0.008*[#   7]
          +0.008*[#   8]
    |psi|^2 = 0.957
==== e(  19) =    12.39905 eV ==== 
     psi = 0.243*[#  14]+0.243*[#  15]+0.243*[#  17]+0.036*[#  13]+0.036*[#  16]
          +0.021*[#  27]+0.021*[#  28]+0.021*[#  30]+0.019*[#   2]+0.019*[#   3]
          +0.019*[#   4]+0.019*[#   6]+0.019*[#   7]+0.019*[#   8]+0.014*[#  31]
          +0.006*[#   1]+0.006*[#   5]+0.002*[#  18]
    |psi|^2 = 1.009
==== e(  20) =    12.67118 eV ==== 
     psi = 0.211*[#  13]+0.211*[#  16]+0.053*[#  26]+0.053*[#  29]+0.048*[#  14]
          +0.048*[#  15]+0.048*[#  17]+0.044*[#  27]+0.044*[#  28]+0.044*[#  30]
          +0.015*[#   2]+0.015*[#   3]+0.015*[#   4]+0.015*[#   6]+0.015*[#   7]
          +0.015*[#   8]+0.001*[#  32]+0.001*[#  33]+0.001*[#  34]
    |psi|^2 = 0.900
==== e(  21) =    13.05158 eV ==== 
     psi = 0.163*[#  27]+0.163*[#  28]+0.163*[#  30]+0.126*[#  13]+0.126*[#  16]
          +0.033*[#   2]+0.033*[#   3]+0.033*[#   4]+0.033*[#   6]+0.033*[#   7]
          +0.033*[#   8]+0.010*[#  14]+0.010*[#  15]+0.010*[#  17]+0.004*[#   1]
          +0.004*[#   5]+0.003*[#  32]+0.003*[#  33]+0.003*[#  34]+0.001*[#  31]
          
    |psi|^2 = 0.994
==== e(  22) =    13.42784 eV ==== 
     psi = 0.152*[#  27]+0.152*[#  28]+0.152*[#  30]+0.084*[#  13]+0.084*[#  16]
          +0.038*[#  14]+0.038*[#  15]+0.038*[#  17]+0.030*[#   2]+0.030*[#   3]
          +0.030*[#   4]+0.030*[#   6]+0.030*[#   7]+0.030*[#   8]+0.022*[#  26]
          +0.022*[#  29]+0.020*[#  31]+0.004*[#   1]+0.004*[#   5]+0.003*[#  32]
          +0.003*[#  33]+0.003*[#  34]+0.001*[#  19]+0.001*[#  20]+0.001*[#  21]
          
    |psi|^2 = 1.005
==== e(  23) =    13.47448 eV ==== 
     psi = 0.253*[#  27]+0.253*[#  28]+0.253*[#  30]+0.032*[#  26]+0.032*[#  29]
          +0.020*[#   2]+0.020*[#   3]+0.020*[#   4]+0.020*[#   6]+0.020*[#   7]
          +0.020*[#   8]+0.019*[#  13]+0.019*[#  16]+0.005*[#  14]+0.005*[#  15]
          +0.005*[#  17]
    |psi|^2 = 0.996
==== e(  24) =    13.61923 eV ==== 
     psi = 0.216*[#  27]+0.216*[#  28]+0.216*[#  30]+0.031*[#   2]+0.031*[#   3]
          +0.031*[#   4]+0.031*[#   6]+0.031*[#   7]+0.031*[#   8]+0.031*[#  13]
          +0.031*[#  16]+0.027*[#  14]+0.027*[#  15]+0.027*[#  17]+0.024*[#  26]
          +0.024*[#  29]+0.015*[#  18]+0.004*[#   1]+0.004*[#   5]+0.001*[#  31]
          +0.001*[#  32]+0.001*[#  33]+0.001*[#  34]
    |psi|^2 = 1.056
==== e(  25) =    15.15473 eV ==== 
     psi = 0.341*[#  26]+0.341*[#  29]+0.028*[#   2]+0.028*[#   3]+0.028*[#   4]
          +0.028*[#   6]+0.028*[#   7]+0.028*[#   8]+0.020*[#  18]+0.016*[#   1]
          +0.016*[#   5]+0.016*[#  13]+0.016*[#  16]+0.009*[#  27]+0.009*[#  28]
          +0.009*[#  30]+0.006*[#  19]+0.006*[#  20]+0.006*[#  21]+0.004*[#  32]
          +0.004*[#  33]+0.004*[#  34]+0.003*[#  14]+0.003*[#  15]+0.003*[#  17]
          +0.001*[#  31]
    |psi|^2 = 0.998
==== e(  26) =    15.68487 eV ==== 
     psi = 0.291*[#  26]+0.291*[#  29]+0.049*[#  13]+0.049*[#  16]+0.043*[#   2]
          +0.043*[#   3]+0.043*[#   4]+0.043*[#   6]+0.043*[#   7]+0.043*[#   8]
          +0.004*[#  19]+0.004*[#  20]+0.004*[#  21]+0.004*[#  32]+0.004*[#  33]
          +0.004*[#  34]+0.001*[#  27]+0.001*[#  28]+0.001*[#  30]+0.001*[#  14]
          +0.001*[#  15]+0.001*[#  17]
    |psi|^2 = 0.971
==== e(  27) =    17.64505 eV ==== 
     psi = 0.220*[#  18]+0.212*[#  31]+0.116*[#   1]+0.116*[#   5]+0.052*[#   2]
          +0.052*[#   3]+0.052*[#   4]+0.052*[#   6]+0.052*[#   7]+0.052*[#   8]
          +0.023*[#  19]+0.023*[#  20]+0.023*[#  21]+0.020*[#  32]+0.020*[#  33]
          +0.020*[#  34]+0.009*[#  26]+0.009*[#  29]+0.002*[#  13]+0.002*[#  16]
          
    |psi|^2 = 1.127
==== e(  28) =    21.48774 eV ==== 
     psi = 0.085*[#   1]+0.085*[#   5]+0.069*[#  19]+0.069*[#  20]+0.069*[#  21]
          +0.069*[#  32]+0.069*[#  33]+0.069*[#  34]+0.011*[#   2]+0.011*[#   3]
          +0.011*[#   4]+0.011*[#   6]+0.011*[#   7]+0.011*[#   8]+0.004*[#  26]
          +0.004*[#  29]+0.002*[#  13]+0.002*[#  16]+0.002*[#  27]+0.002*[#  28]
          +0.002*[#  30]+0.001*[#  14]+0.001*[#  15]+0.001*[#  17]
    |psi|^2 = 0.675
==== e(  29) =    24.15785 eV ==== 
     psi = 0.365*[#  31]+0.357*[#  18]+0.038*[#   2]+0.038*[#   3]+0.038*[#   4]
          +0.038*[#   6]+0.038*[#   7]+0.038*[#   8]+0.003*[#  32]+0.003*[#  33]
          +0.003*[#  34]+0.002*[#  19]+0.002*[#  20]+0.002*[#  21]+0.002*[#   9]
          +0.001*[#  22]
    |psi|^2 = 0.970
==== e(  30) =    26.68886 eV ==== 
     psi = 0.136*[#  19]+0.136*[#  20]+0.136*[#  21]+0.128*[#  32]+0.128*[#  33]
          +0.128*[#  34]+0.021*[#  18]+0.019*[#  31]+0.011*[#   2]+0.011*[#   3]
          +0.011*[#   4]+0.011*[#   6]+0.011*[#   7]+0.011*[#   8]+0.002*[#  27]
          +0.002*[#  28]+0.002*[#  30]+0.002*[#  14]+0.002*[#  15]+0.002*[#  17]
          +0.001*[#   1]+0.001*[#   5]
    |psi|^2 = 0.910

 k =   0.3750000000 -0.1250000000 -0.1250000000
==== e(   1) =   -89.99480 eV ==== 
     psi = 0.987*[#   9]+0.002*[#  19]+0.002*[#  20]+0.002*[#  21]
    |psi|^2 = 1.000
==== e(   2) =   -88.12921 eV ==== 
     psi = 0.987*[#  22]+0.003*[#  32]+0.003*[#  33]+0.003*[#  34]+0.002*[#  19]
          +0.002*[#  20]+0.002*[#  21]
    |psi|^2 = 1.006
==== e(   3) =   -50.39825 eV ==== 
     psi = 0.220*[#  10]+0.220*[#  11]+0.220*[#  12]
    |psi|^2 = 0.665
==== e(   4) =   -50.37977 eV ==== 
     psi = 0.279*[#  10]+0.279*[#  11]+0.279*[#  12]+0.001*[#  32]+0.001*[#  33]
          +0.001*[#  34]
    |psi|^2 = 0.845
==== e(   5) =   -50.37108 eV ==== 
     psi = 0.333*[#  10]+0.333*[#  11]+0.333*[#  12]
    |psi|^2 = 1.000
==== e(   6) =   -48.58489 eV ==== 
     psi = 0.217*[#  23]+0.217*[#  24]+0.217*[#  25]
    |psi|^2 = 0.651
==== e(   7) =   -48.58012 eV ==== 
     psi = 0.398*[#  23]+0.398*[#  24]+0.398*[#  25]
    |psi|^2 = 1.197
==== e(   8) =   -48.57038 eV ==== 
     psi = 0.267*[#  23]+0.267*[#  24]+0.267*[#  25]
    |psi|^2 = 0.803
==== e(   9) =    -5.35170 eV ==== 
     psi = 0.344*[#   1]+0.344*[#   5]+0.067*[#  18]+0.066*[#  31]+0.028*[#  19]
          +0.028*[#  20]+0.028*[#  21]+0.028*[#  32]+0.028*[#  33]+0.028*[#  34]
          +0.002*[#   9]+0.002*[#  22]
    |psi|^2 = 1.000
==== e(  10) =    -4.43073 eV ==== 
     psi = 0.401*[#   1]+0.401*[#   5]+0.038*[#  19]+0.038*[#  20]+0.038*[#  21]
          +0.037*[#  32]+0.037*[#  33]+0.037*[#  34]+0.006*[#  13]+0.006*[#  16]
          +0.005*[#  26]+0.005*[#  29]
    |psi|^2 = 1.051
==== e(  11) =     7.12728 eV ==== 
     psi = 0.080*[#  31]+0.071*[#  18]+0.061*[#   2]+0.061*[#   3]+0.061*[#   4]
          +0.061*[#   6]+0.061*[#   7]+0.061*[#   8]+0.025*[#  32]+0.025*[#  33]
          +0.025*[#  34]+0.024*[#  19]+0.024*[#  20]+0.024*[#  21]+0.019*[#  14]
          +0.019*[#  15]+0.019*[#  17]+0.014*[#  27]+0.014*[#  28]+0.014*[#  30]
          +0.011*[#  13]+0.011*[#  16]+0.004*[#  26]+0.004*[#  29]+0.002*[#  22]
          +0.001*[#   1]+0.001*[#   5]+0.001*[#   9]
    |psi|^2 = 0.797
==== e(  12) =     8.35865 eV ==== 
     psi = 0.095*[#   2]+0.095*[#   3]+0.095*[#   4]+0.095*[#   6]+0.095*[#   7]
          +0.095*[#   8]+0.083*[#  13]+0.083*[#  16]+0.029*[#  19]+0.029*[#  20]
          +0.029*[#  21]+0.022*[#  31]+0.017*[#  27]+0.017*[#  28]+0.017*[#  30]
          +0.014*[#  18]+0.012*[#  32]+0.012*[#  33]+0.012*[#  34]+0.009*[#   1]
          +0.009*[#   5]+0.003*[#  14]+0.003*[#  15]+0.003*[#  17]
    |psi|^2 = 0.975
==== e(  13) =     8.50793 eV ==== 
     psi = 0.107*[#   2]+0.107*[#   3]+0.107*[#   4]+0.107*[#   6]+0.107*[#   7]
          +0.107*[#   8]+0.045*[#  18]+0.040*[#  26]+0.040*[#  29]+0.029*[#  14]
          +0.029*[#  15]+0.029*[#  17]+0.024*[#  32]+0.024*[#  33]+0.024*[#  34]
          +0.018*[#  31]+0.015*[#   1]+0.015*[#   5]+0.005*[#  19]+0.005*[#  20]
          +0.005*[#  21]+0.002*[#  13]+0.002*[#  16]
    |psi|^2 = 0.997
==== e(  14) =     8.97709 eV ==== 
     psi = 0.154*[#  13]+0.154*[#  16]+0.135*[#   2]+0.135*[#   3]+0.135*[#   4]
          +0.135*[#   6]+0.135*[#   7]+0.135*[#   8]+0.039*[#  26]+0.039*[#  29]
          +0.024*[#  32]+0.024*[#  33]+0.024*[#  34]+0.007*[#  19]+0.007*[#  20]
          +0.007*[#  21]+0.002*[#  27]+0.002*[#  28]+0.002*[#  30]
    |psi|^2 = 1.299
==== e(  15) =     9.98365 eV ==== 
     psi = 0.106*[#   2]+0.106*[#   3]+0.106*[#   4]+0.106*[#   6]+0.106*[#   7]
          +0.106*[#   8]+0.051*[#  13]+0.051*[#  16]+0.029*[#  26]+0.029*[#  29]
          +0.024*[#  27]+0.024*[#  28]+0.024*[#  30]+0.023*[#  14]+0.023*[#  15]
          +0.023*[#  17]+0.010*[#  31]+0.006*[#  32]+0.006*[#  33]+0.006*[#  34]
          +0.006*[#  19]+0.006*[#  20]+0.006*[#  21]+0.004*[#  18]+0.001*[#   1]
          +0.001*[#   5]
    |psi|^2 = 0.990
==== e(  16) =    10.21105 eV ==== 
     psi = 0.056*[#   2]+0.056*[#   3]+0.056*[#   4]+0.056*[#   6]+0.056*[#   7]
          +0.056*[#   8]+0.042*[#  26]+0.042*[#  29]+0.034*[#  14]+0.034*[#  15]
          +0.034*[#  17]+0.028*[#  13]+0.028*[#  16]+0.013*[#  27]+0.013*[#  28]
          +0.013*[#  30]+0.005*[#  19]+0.005*[#  20]+0.005*[#  21]+0.002*[#  32]
          +0.002*[#  33]+0.002*[#  34]
    |psi|^2 = 0.640
==== e(  17) =    11.90129 eV ==== 
     psi = 0.261*[#  14]+0.261*[#  15]+0.261*[#  17]+0.033*[#  27]+0.033*[#  28]
          +0.033*[#  30]+0.032*[#  13]+0.032*[#  16]+0.005*[#   2]+0.005*[#   3]
          +0.005*[#   4]+0.005*[#   6]+0.005*[#   7]+0.005*[#   8]+0.004*[#  18]
          +0.002*[#   1]+0.002*[#   5]
    |psi|^2 = 0.990
==== e(  18) =    12.42976 eV ==== 
     psi = 0.246*[#  14]+0.246*[#  15]+0.246*[#  17]+0.055*[#  13]+0.055*[#  16]
          +0.043*[#  26]+0.043*[#  29]+0.005*[#   2]+0.005*[#   3]+0.005*[#   4]
          +0.005*[#   6]+0.005*[#   7]+0.005*[#   8]+0.004*[#  27]+0.004*[#  28]
          +0.004*[#  30]
    |psi|^2 = 0.975
==== e(  19) =    12.56694 eV ==== 
     psi = 0.230*[#  14]+0.230*[#  15]+0.230*[#  17]+0.060*[#  13]+0.060*[#  16]
          +0.024*[#  27]+0.024*[#  28]+0.024*[#  30]+0.014*[#   2]+0.014*[#   3]
          +0.014*[#   4]+0.014*[#   6]+0.014*[#   7]+0.014*[#   8]+0.013*[#  31]
          +0.007*[#   1]+0.007*[#   5]+0.005*[#  26]+0.005*[#  29]+0.002*[#  18]
          +0.001*[#  32]+0.001*[#  33]+0.001*[#  34]
    |psi|^2 = 1.014
==== e(  20) =    12.91040 eV ==== 
     psi = 0.181*[#  13]+0.181*[#  16]+0.081*[#  27]+0.081*[#  28]+0.081*[#  30]
          +0.049*[#  14]+0.049*[#  15]+0.049*[#  17]+0.036*[#  26]+0.036*[#  29]
          +0.013*[#   2]+0.013*[#   3]+0.013*[#   4]+0.013*[#   6]+0.013*[#   7]
          +0.013*[#   8]+0.002*[#  32]+0.002*[#  33]+0.002*[#  34]
    |psi|^2 = 0.912
==== e(  21) =    13.06948 eV ==== 
     psi = 0.181*[#  27]+0.181*[#  28]+0.181*[#  30]+0.064*[#  13]+0.064*[#  16]
          +0.039*[#  14]+0.039*[#  15]+0.039*[#  17]+0.024*[#   2]+0.024*[#   3]
          +0.024*[#   4]+0.024*[#   6]+0.024*[#   7]+0.024*[#   8]+0.021*[#  26]
          +0.021*[#  29]+0.004*[#   1]+0.004*[#   5]+0.002*[#  32]+0.002*[#  33]
          +0.002*[#  34]
    |psi|^2 = 0.992
==== e(  22) =    13.36625 eV ==== 
     psi = 0.167*[#  13]+0.167*[#  16]+0.091*[#  27]+0.091*[#  28]+0.091*[#  30]
          +0.039*[#  14]+0.039*[#  15]+0.039*[#  17]+0.027*[#   2]+0.027*[#   3]
          +0.027*[#   4]+0.027*[#   6]+0.027*[#   7]+0.027*[#   8]+0.024*[#  31]
          +0.008*[#   1]+0.008*[#   5]+0.002*[#  18]+0.002*[#  19]+0.002*[#  20]
          +0.002*[#  21]+0.002*[#  32]+0.002*[#  33]+0.002*[#  34]+0.001*[#  26]
          +0.001*[#  29]
    |psi|^2 = 0.946
==== e(  23) =    13.66007 eV ==== 
     psi = 0.232*[#  27]+0.232*[#  28]+0.232*[#  30]+0.042*[#  13]+0.042*[#  16]
          +0.028*[#   2]+0.028*[#   3]+0.028*[#   4]+0.028*[#   6]+0.028*[#   7]
          +0.028*[#   8]+0.014*[#  26]+0.014*[#  29]+0.001*[#  32]+0.001*[#  33]
          +0.001*[#  34]
    |psi|^2 = 0.983
==== e(  24) =    13.69164 eV ==== 
     psi = 0.262*[#  27]+0.262*[#  28]+0.262*[#  30]+0.028*[#   2]+0.028*[#   3]
          +0.028*[#   4]+0.028*[#   6]+0.028*[#   7]+0.028*[#   8]+0.015*[#  13]
          +0.015*[#  16]+0.014*[#  14]+0.014*[#  15]+0.014*[#  17]+0.006*[#  18]
          +0.004*[#  26]+0.004*[#  29]+0.004*[#   1]+0.004*[#   5]+0.003*[#  19]
          +0.003*[#  20]+0.003*[#  21]+0.002*[#  31]
    |psi|^2 = 1.059
==== e(  25) =    15.02675 eV ==== 
     psi = 0.373*[#  26]+0.373*[#  29]+0.035*[#  18]+0.022*[#   2]+0.022*[#   3]
          +0.022*[#   4]+0.022*[#   6]+0.022*[#   7]+0.022*[#   8]+0.021*[#   1]
          +0.021*[#   5]+0.006*[#  27]+0.006*[#  28]+0.006*[#  30]+0.003*[#  19]
          +0.003*[#  20]+0.003*[#  21]+0.003*[#  31]+0.003*[#  32]+0.003*[#  33]
          +0.003*[#  34]
    |psi|^2 = 0.998
==== e(  26) =    15.52997 eV ==== 
     psi = 0.323*[#  26]+0.323*[#  29]+0.038*[#  13]+0.038*[#  16]+0.032*[#   2]
          +0.032*[#   3]+0.032*[#   4]+0.032*[#   6]+0.032*[#   7]+0.032*[#   8]
          +0.003*[#  32]+0.003*[#  33]+0.003*[#  34]+0.002*[#  19]+0.002*[#  20]
          +0.002*[#  21]
    |psi|^2 = 0.933
==== e(  27) =    18.97205 eV ==== 
     psi = 0.174*[#  18]+0.166*[#  31]+0.094*[#   1]+0.094*[#   5]+0.058*[#   2]
          +0.058*[#   3]+0.058*[#   4]+0.058*[#   6]+0.058*[#   7]+0.058*[#   8]
          +0.032*[#  19]+0.032*[#  20]+0.032*[#  21]+0.029*[#  32]+0.029*[#  33]
          +0.029*[#  34]+0.012*[#  26]+0.012*[#  29]+0.004*[#  13]+0.004*[#  16]
          
    |psi|^2 = 1.096
==== e(  28) =    22.70453 eV ==== 
     psi = 0.066*[#   1]+0.066*[#   5]+0.065*[#  19]+0.065*[#  20]+0.065*[#  21]
          +0.065*[#  32]+0.065*[#  33]+0.065*[#  34]+0.012*[#   2]+0.012*[#   3]
          +0.012*[#   4]+0.012*[#   6]+0.012*[#   7]+0.012*[#   8]+0.003*[#  27]
          +0.003*[#  28]+0.003*[#  30]+0.003*[#  26]+0.003*[#  29]+0.002*[#  14]
          +0.002*[#  15]+0.002*[#  17]+0.002*[#  13]+0.002*[#  16]
    |psi|^2 = 0.618
==== e(  29) =    23.79231 eV ==== 
     psi = 0.389*[#  31]+0.388*[#  18]+0.031*[#   2]+0.031*[#   3]+0.031*[#   4]
          +0.031*[#   6]+0.031*[#   7]+0.031*[#   8]+0.002*[#   9]+0.002*[#  32]
          +0.002*[#  33]+0.002*[#  34]+0.002*[#  19]+0.002*[#  20]+0.002*[#  21]
          +0.001*[#  22]
    |psi|^2 = 0.981
==== e(  30) =    25.57746 eV ==== 
     psi = 0.123*[#  19]+0.123*[#  20]+0.123*[#  21]+0.117*[#  32]+0.117*[#  33]
          +0.117*[#  34]+0.025*[#   2]+0.025*[#   3]+0.025*[#   4]+0.025*[#   6]
          +0.025*[#   7]+0.025*[#   8]+0.011*[#  18]+0.009*[#  31]+0.004*[#  27]
          +0.004*[#  28]+0.004*[#  30]+0.003*[#  14]+0.003*[#  15]+0.003*[#  17]
          +0.002*[#   1]+0.002*[#   5]
    |psi|^2 = 0.914

 k =   0.5000000000 -0.1666666667 -0.1666666667
==== e(   1) =   -89.99433 eV ==== 
     psi = 0.989*[#   9]+0.001*[#  19]+0.001*[#  20]+0.001*[#  21]
    |psi|^2 = 1.000
==== e(   2) =   -88.12870 eV ==== 
     psi = 0.989*[#  22]+0.002*[#  32]+0.002*[#  33]+0.002*[#  34]+0.002*[#  19]
          +0.002*[#  20]+0.002*[#  21]
    |psi|^2 = 1.005
==== e(   3) =   -50.39742 eV ==== 
     psi = 0.219*[#  10]+0.219*[#  11]+0.219*[#  12]
    |psi|^2 = 0.660
==== e(   4) =   -50.38559 eV ==== 
     psi = 0.280*[#  10]+0.280*[#  11]+0.280*[#  12]+0.001*[#  19]+0.001*[#  20]
          +0.001*[#  21]
    |psi|^2 = 0.849
==== e(   5) =   -50.37256 eV ==== 
     psi = 0.333*[#  10]+0.333*[#  11]+0.333*[#  12]
    |psi|^2 = 1.000
==== e(   6) =   -48.58667 eV ==== 
     psi = 0.263*[#  23]+0.263*[#  24]+0.263*[#  25]
    |psi|^2 = 0.790
==== e(   7) =   -48.58401 eV ==== 
     psi = 0.306*[#  23]+0.306*[#  24]+0.306*[#  25]
    |psi|^2 = 0.919
==== e(   8) =   -48.57202 eV ==== 
     psi = 0.359*[#  23]+0.359*[#  24]+0.359*[#  25]
    |psi|^2 = 1.080
==== e(   9) =    -5.01118 eV ==== 
     psi = 0.360*[#   1]+0.360*[#   5]+0.039*[#  18]+0.038*[#  31]+0.031*[#  32]
          +0.031*[#  33]+0.031*[#  34]+0.031*[#  19]+0.031*[#  20]+0.031*[#  21]
          +0.002*[#  13]+0.002*[#  16]+0.002*[#  26]+0.002*[#  29]+0.001*[#   9]
          +0.001*[#  22]
    |psi|^2 = 1.000
==== e(  10) =    -4.39408 eV ==== 
     psi = 0.412*[#   1]+0.412*[#   5]+0.035*[#  19]+0.035*[#  20]+0.035*[#  21]
          +0.034*[#  32]+0.034*[#  33]+0.034*[#  34]+0.007*[#  13]+0.007*[#  16]
          +0.006*[#  26]+0.006*[#  29]
    |psi|^2 = 1.061
==== e(  11) =     7.53066 eV ==== 
     psi = 0.100*[#  31]+0.058*[#   2]+0.058*[#   3]+0.058*[#   4]+0.058*[#   6]
          +0.058*[#   7]+0.058*[#   8]+0.044*[#  13]+0.044*[#  16]+0.023*[#  18]
          +0.020*[#  19]+0.020*[#  20]+0.020*[#  21]+0.018*[#  32]+0.018*[#  33]
          +0.018*[#  34]+0.014*[#  14]+0.014*[#  15]+0.014*[#  17]+0.013*[#  27]
          +0.013*[#  28]+0.013*[#  30]+0.003*[#   1]+0.003*[#   5]+0.002*[#  22]
          +0.002*[#  26]+0.002*[#  29]
    |psi|^2 = 0.768
==== e(  12) =     7.69972 eV ==== 
     psi = 0.102*[#  18]+0.089*[#   2]+0.089*[#   3]+0.089*[#   4]+0.089*[#   6]
          +0.089*[#   7]+0.089*[#   8]+0.028*[#  26]+0.028*[#  29]+0.018*[#   1]
          +0.018*[#   5]+0.017*[#  14]+0.017*[#  15]+0.017*[#  17]+0.014*[#  13]
          +0.014*[#  16]+0.013*[#  31]+0.012*[#  32]+0.012*[#  33]+0.012*[#  34]
          +0.005*[#  19]+0.005*[#  20]+0.005*[#  21]+0.005*[#  27]+0.005*[#  28]
          +0.005*[#  30]+0.003*[#   9]
    |psi|^2 = 0.892
==== e(  13) =     8.13694 eV ==== 
     psi = 0.105*[#   2]+0.105*[#   3]+0.105*[#   4]+0.105*[#   6]+0.105*[#   7]
          +0.105*[#   8]+0.048*[#  19]+0.048*[#  20]+0.048*[#  21]+0.042*[#  32]
          +0.042*[#  33]+0.042*[#  34]+0.017*[#  14]+0.017*[#  15]+0.017*[#  17]
          +0.015*[#  27]+0.015*[#  28]+0.015*[#  30]
    |psi|^2 = 0.999
==== e(  14) =     9.03788 eV ==== 
     psi = 0.161*[#  13]+0.161*[#  16]+0.153*[#   2]+0.153*[#   3]+0.153*[#   4]
          +0.153*[#   6]+0.153*[#   7]+0.153*[#   8]+0.050*[#  19]+0.050*[#  20]
          +0.050*[#  21]+0.047*[#  32]+0.047*[#  33]+0.047*[#  34]+0.027*[#  26]
          +0.027*[#  29]
    |psi|^2 = 1.591
==== e(  15) =     9.48154 eV ==== 
     psi = 0.107*[#   2]+0.107*[#   3]+0.107*[#   4]+0.107*[#   6]+0.107*[#   7]
          +0.107*[#   8]+0.065*[#  13]+0.065*[#  16]+0.030*[#  26]+0.030*[#  29]
          +0.021*[#  14]+0.021*[#  15]+0.021*[#  17]+0.019*[#  27]+0.019*[#  28]
          +0.019*[#  30]+0.014*[#  31]+0.009*[#  32]+0.009*[#  33]+0.009*[#  34]
          +0.007*[#  19]+0.007*[#  20]+0.007*[#  21]+0.004*[#  18]
    |psi|^2 = 1.016
==== e(  16) =     9.88707 eV ==== 
     psi = 0.061*[#  26]+0.061*[#  29]+0.057*[#   2]+0.057*[#   3]+0.057*[#   4]
          +0.057*[#   6]+0.057*[#   7]+0.057*[#   8]+0.021*[#  14]+0.021*[#  15]
          +0.021*[#  17]+0.020*[#  13]+0.020*[#  16]+0.012*[#  27]+0.012*[#  28]
          +0.012*[#  30]+0.007*[#  19]+0.007*[#  20]+0.007*[#  21]+0.002*[#  32]
          +0.002*[#  33]+0.002*[#  34]
    |psi|^2 = 0.629
==== e(  17) =    11.87111 eV ==== 
     psi = 0.261*[#  14]+0.261*[#  15]+0.261*[#  17]+0.047*[#  13]+0.047*[#  16]
          +0.020*[#  27]+0.020*[#  28]+0.020*[#  30]+0.006*[#   2]+0.006*[#   3]
          +0.006*[#   4]+0.006*[#   6]+0.006*[#   7]+0.006*[#   8]+0.005*[#  18]
          +0.004*[#   1]+0.004*[#   5]
    |psi|^2 = 0.990
==== e(  18) =    12.47820 eV ==== 
     psi = 0.269*[#  14]+0.269*[#  15]+0.269*[#  17]+0.059*[#  13]+0.059*[#  16]
          +0.022*[#  26]+0.022*[#  29]+0.002*[#   2]+0.002*[#   3]+0.002*[#   4]
          +0.002*[#   6]+0.002*[#   7]+0.002*[#   8]
    |psi|^2 = 0.987
==== e(  19) =    12.74776 eV ==== 
     psi = 0.228*[#  14]+0.228*[#  15]+0.228*[#  17]+0.043*[#  27]+0.043*[#  28]
          +0.043*[#  30]+0.040*[#  13]+0.040*[#  16]+0.013*[#   2]+0.013*[#   3]
          +0.013*[#   4]+0.013*[#   6]+0.013*[#   7]+0.013*[#   8]+0.006*[#  26]
          +0.006*[#  29]+0.005*[#   1]+0.005*[#   5]+0.004*[#  31]+0.003*[#  18]
          +0.002*[#  32]+0.002*[#  33]+0.002*[#  34]
    |psi|^2 = 1.006
==== e(  20) =    12.97216 eV ==== 
     psi = 0.182*[#  27]+0.182*[#  28]+0.182*[#  30]+0.059*[#  14]+0.059*[#  15]
          +0.059*[#  17]+0.041*[#  13]+0.041*[#  16]+0.028*[#  26]+0.028*[#  29]
          +0.011*[#   2]+0.011*[#   3]+0.011*[#   4]+0.011*[#   6]+0.011*[#   7]
          +0.011*[#   8]+0.004*[#   1]+0.004*[#   5]+0.001*[#  31]
    |psi|^2 = 0.940
==== e(  21) =    13.15216 eV ==== 
     psi = 0.174*[#  13]+0.174*[#  16]+0.103*[#  27]+0.103*[#  28]+0.103*[#  30]
          +0.035*[#  14]+0.035*[#  15]+0.035*[#  17]+0.031*[#  26]+0.031*[#  29]
          +0.026*[#   2]+0.026*[#   3]+0.026*[#   4]+0.026*[#   6]+0.026*[#   7]
          +0.026*[#   8]+0.006*[#  32]+0.006*[#  33]+0.006*[#  34]
    |psi|^2 = 0.998
==== e(  22) =    13.23141 eV ==== 
     psi = 0.224*[#  13]+0.224*[#  16]+0.055*[#  27]+0.055*[#  28]+0.055*[#  30]
          +0.036*[#  14]+0.036*[#  15]+0.036*[#  17]+0.025*[#  31]+0.019*[#   2]
          +0.019*[#   3]+0.019*[#   4]+0.019*[#   6]+0.019*[#   7]+0.019*[#   8]
          +0.014*[#  26]+0.014*[#  29]+0.013*[#   1]+0.013*[#   5]+0.005*[#  18]
          +0.001*[#  32]+0.001*[#  33]+0.001*[#  34]
    |psi|^2 = 0.928
==== e(  23) =    13.77965 eV ==== 
     psi = 0.295*[#  27]+0.295*[#  28]+0.295*[#  30]+0.024*[#   2]+0.024*[#   3]
          +0.024*[#   4]+0.024*[#   6]+0.024*[#   7]+0.024*[#   8]+0.002*[#  14]
          +0.002*[#  15]+0.002*[#  17]+0.002*[#  18]+0.002*[#  26]+0.002*[#  29]
          
    |psi|^2 = 1.050
==== e(  24) =    13.78605 eV ==== 
     psi = 0.216*[#  27]+0.216*[#  28]+0.216*[#  30]+0.063*[#  13]+0.063*[#  16]
          +0.025*[#   2]+0.025*[#   3]+0.025*[#   4]+0.025*[#   6]+0.025*[#   7]
          +0.025*[#   8]+0.006*[#  14]+0.006*[#  15]+0.006*[#  17]+0.002*[#  32]
          +0.002*[#  33]+0.002*[#  34]+0.002*[#  26]+0.002*[#  29]
    |psi|^2 = 0.949
==== e(  25) =    15.16430 eV ==== 
     psi = 0.365*[#  26]+0.365*[#  29]+0.026*[#  18]+0.024*[#   1]+0.024*[#   5]
          +0.024*[#   2]+0.024*[#   3]+0.024*[#   4]+0.024*[#   6]+0.024*[#   7]
          +0.024*[#   8]+0.008*[#  13]+0.008*[#  16]+0.005*[#  19]+0.005*[#  20]
          +0.005*[#  21]+0.004*[#  27]+0.004*[#  28]+0.004*[#  30]+0.002*[#  32]
          +0.002*[#  33]+0.002*[#  34]+0.001*[#  31]
    |psi|^2 = 0.998
==== e(  26) =    15.39040 eV ==== 
     psi = 0.356*[#  26]+0.356*[#  29]+0.028*[#   2]+0.028*[#   3]+0.028*[#   4]
          +0.028*[#   6]+0.028*[#   7]+0.028*[#   8]+0.022*[#  13]+0.022*[#  16]
          +0.005*[#  19]+0.005*[#  20]+0.005*[#  21]+0.002*[#  32]+0.002*[#  33]
          +0.002*[#  34]
    |psi|^2 = 0.949
==== e(  27) =    20.19725 eV ==== 
     psi = 0.161*[#  18]+0.148*[#  31]+0.075*[#   1]+0.075*[#   5]+0.059*[#   2]
          +0.059*[#   3]+0.059*[#   4]+0.059*[#   6]+0.059*[#   7]+0.059*[#   8]
          +0.037*[#  19]+0.037*[#  20]+0.037*[#  21]+0.035*[#  32]+0.035*[#  33]
          +0.035*[#  34]+0.011*[#  26]+0.011*[#  29]+0.005*[#  13]+0.005*[#  16]
          
    |psi|^2 = 1.058
==== e(  28) =    23.26615 eV ==== 
     psi = 0.307*[#  18]+0.303*[#  31]+0.026*[#   1]+0.026*[#   5]+0.023*[#  19]
          +0.023*[#  20]+0.023*[#  21]+0.021*[#  32]+0.021*[#  33]+0.021*[#  34]
          +0.003*[#   2]+0.003*[#   3]+0.003*[#   4]+0.003*[#   6]+0.003*[#   7]
          +0.003*[#   8]+0.002*[#   9]+0.001*[#  22]+0.001*[#  27]+0.001*[#  28]
          +0.001*[#  30]
    |psi|^2 = 0.819
==== e(  29) =    23.72998 eV ==== 
     psi = 0.107*[#  18]+0.101*[#  31]+0.074*[#  32]+0.074*[#  33]+0.074*[#  34]
          +0.070*[#  19]+0.070*[#  20]+0.070*[#  21]+0.032*[#   2]+0.032*[#   3]
          +0.032*[#   4]+0.032*[#   6]+0.032*[#   7]+0.032*[#   8]+0.032*[#   1]
          +0.032*[#   5]+0.004*[#  27]+0.004*[#  28]+0.004*[#  30]+0.003*[#  14]
          +0.003*[#  15]+0.003*[#  17]+0.003*[#  26]+0.003*[#  29]+0.002*[#  13]
          +0.002*[#  16]
    |psi|^2 = 0.923
==== e(  30) =    25.01281 eV ==== 
     psi = 0.114*[#  19]+0.114*[#  20]+0.114*[#  21]+0.111*[#  32]+0.111*[#  33]
          +0.111*[#  34]+0.040*[#   2]+0.040*[#   3]+0.040*[#   4]+0.040*[#   6]
          +0.040*[#   7]+0.040*[#   8]+0.003*[#  27]+0.003*[#  28]+0.003*[#  30]
          +0.002*[#  14]+0.002*[#  15]+0.002*[#  17]
    |psi|^2 = 0.934

 k =   0.6250000000 -0.2083333333 -0.2083333333
==== e(   1) =   -89.99399 eV ==== 
     psi = 0.991*[#   9]
    |psi|^2 = 1.000
==== e(   2) =   -88.12833 eV ==== 
     psi = 0.992*[#  22]+0.001*[#  19]+0.001*[#  20]+0.001*[#  21]+0.001*[#  32]
          +0.001*[#  33]+0.001*[#  34]
    |psi|^2 = 1.003
==== e(   3) =   -50.39681 eV ==== 
     psi = 0.216*[#  10]+0.216*[#  11]+0.216*[#  12]
    |psi|^2 = 0.650
==== e(   4) =   -50.38984 eV ==== 
     psi = 0.283*[#  10]+0.283*[#  11]+0.283*[#  12]+0.001*[#  19]+0.001*[#  20]
          +0.001*[#  21]
    |psi|^2 = 0.856
==== e(   5) =   -50.37363 eV ==== 
     psi = 0.333*[#  10]+0.333*[#  11]+0.333*[#  12]
    |psi|^2 = 1.000
==== e(   6) =   -48.59142 eV ==== 
     psi = 0.271*[#  23]+0.271*[#  24]+0.271*[#  25]
    |psi|^2 = 0.816
==== e(   7) =   -48.58338 eV ==== 
     psi = 0.289*[#  23]+0.289*[#  24]+0.289*[#  25]
    |psi|^2 = 0.868
==== e(   8) =   -48.57323 eV ==== 
     psi = 0.376*[#  23]+0.376*[#  24]+0.376*[#  25]
    |psi|^2 = 1.132
==== e(   9) =    -4.70796 eV ==== 
     psi = 0.383*[#   1]+0.383*[#   5]+0.030*[#  32]+0.030*[#  33]+0.030*[#  34]
          +0.028*[#  19]+0.028*[#  20]+0.028*[#  21]+0.020*[#  18]+0.019*[#  31]
          +0.004*[#  13]+0.004*[#  16]+0.003*[#  26]+0.003*[#  29]
    |psi|^2 = 0.999
==== e(  10) =    -4.40262 eV ==== 
     psi = 0.414*[#   1]+0.414*[#   5]+0.030*[#  19]+0.030*[#  20]+0.030*[#  21]
          +0.029*[#  32]+0.029*[#  33]+0.029*[#  34]+0.008*[#  13]+0.008*[#  16]
          +0.007*[#  26]+0.007*[#  29]+0.002*[#  31]+0.002*[#  18]
    |psi|^2 = 1.041
==== e(  11) =     7.25700 eV ==== 
     psi = 0.091*[#   2]+0.091*[#   3]+0.091*[#   4]+0.091*[#   6]+0.091*[#   7]
          +0.091*[#   8]+0.062*[#  18]+0.047*[#  31]+0.034*[#  32]+0.034*[#  33]
          +0.034*[#  34]+0.023*[#  19]+0.023*[#  20]+0.023*[#  21]+0.022*[#  13]
          +0.022*[#  16]+0.015*[#  14]+0.015*[#  15]+0.015*[#  17]+0.012*[#   1]
          +0.012*[#   5]+0.010*[#  26]+0.010*[#  29]+0.007*[#  27]+0.007*[#  28]
          +0.007*[#  30]+0.002*[#   9]+0.002*[#  22]
    |psi|^2 = 0.983
==== e(  12) =     7.44599 eV ==== 
     psi = 0.076*[#   2]+0.076*[#   3]+0.076*[#   4]+0.076*[#   6]+0.076*[#   7]
          +0.076*[#   8]+0.060*[#  31]+0.042*[#  18]+0.031*[#  19]+0.031*[#  20]
          +0.031*[#  21]+0.022*[#  32]+0.022*[#  33]+0.022*[#  34]+0.016*[#  14]
          +0.016*[#  15]+0.016*[#  17]+0.015*[#  27]+0.015*[#  28]+0.015*[#  30]
          +0.003*[#  13]+0.003*[#  16]+0.001*[#  22]
    |psi|^2 = 0.818
==== e(  13) =     8.29490 eV ==== 
     psi = 0.104*[#   2]+0.104*[#   3]+0.104*[#   4]+0.104*[#   6]+0.104*[#   7]
          +0.104*[#   8]+0.040*[#  13]+0.040*[#  16]+0.029*[#  32]+0.029*[#  33]
          +0.029*[#  34]+0.025*[#  19]+0.025*[#  20]+0.025*[#  21]+0.019*[#  18]
          +0.017*[#  14]+0.017*[#  15]+0.017*[#  17]+0.012*[#  26]+0.012*[#  29]
          +0.009*[#  27]+0.009*[#  28]+0.009*[#  30]+0.005*[#  31]+0.001*[#   1]
          +0.001*[#   5]
    |psi|^2 = 0.998
==== e(  14) =     9.07824 eV ==== 
     psi = 0.171*[#  13]+0.171*[#  16]+0.103*[#   2]+0.103*[#   3]+0.103*[#   4]
          +0.103*[#   6]+0.103*[#   7]+0.103*[#   8]+0.027*[#  32]+0.027*[#  33]
          +0.027*[#  34]+0.022*[#  19]+0.022*[#  20]+0.022*[#  21]+0.010*[#  26]
          +0.010*[#  29]+0.006*[#  14]+0.006*[#  15]+0.006*[#  17]
    |psi|^2 = 1.151
==== e(  15) =     9.08077 eV ==== 
     psi = 0.112*[#   2]+0.112*[#   3]+0.112*[#   4]+0.112*[#   6]+0.112*[#   7]
          +0.112*[#   8]+0.050*[#  13]+0.050*[#  16]+0.040*[#  26]+0.040*[#  29]
          +0.018*[#  27]+0.018*[#  28]+0.018*[#  30]+0.016*[#  31]+0.014*[#  14]
          +0.014*[#  15]+0.014*[#  17]+0.012*[#  19]+0.012*[#  20]+0.012*[#  21]
          +0.010*[#  32]+0.010*[#  33]+0.010*[#  34]+0.004*[#  18]
    |psi|^2 = 1.033
==== e(  16) =     9.68257 eV ==== 
     psi = 0.082*[#  26]+0.082*[#  29]+0.059*[#   2]+0.059*[#   3]+0.059*[#   4]
          +0.059*[#   6]+0.059*[#   7]+0.059*[#   8]+0.011*[#  27]+0.011*[#  28]
          +0.011*[#  30]+0.009*[#  19]+0.009*[#  20]+0.009*[#  21]+0.008*[#  13]
          +0.008*[#  16]+0.007*[#  14]+0.007*[#  15]+0.007*[#  17]
    |psi|^2 = 0.615
==== e(  17) =    11.85799 eV ==== 
     psi = 0.267*[#  14]+0.267*[#  15]+0.267*[#  17]+0.056*[#  13]+0.056*[#  16]
          +0.007*[#  27]+0.007*[#  28]+0.007*[#  30]+0.006*[#   2]+0.006*[#   3]
          +0.006*[#   4]+0.006*[#   6]+0.006*[#   7]+0.006*[#   8]+0.005*[#   1]
          +0.005*[#   5]+0.005*[#  18]
    |psi|^2 = 0.990
==== e(  18) =    12.50829 eV ==== 
     psi = 0.282*[#  14]+0.282*[#  15]+0.282*[#  17]+0.065*[#  13]+0.065*[#  16]
          +0.006*[#  26]+0.006*[#  29]
    |psi|^2 = 0.995
==== e(  19) =    12.82685 eV ==== 
     psi = 0.242*[#  14]+0.242*[#  15]+0.242*[#  17]+0.061*[#  27]+0.061*[#  28]
          +0.061*[#  30]+0.010*[#   2]+0.010*[#   3]+0.010*[#   4]+0.010*[#   6]
          +0.010*[#   7]+0.010*[#   8]+0.008*[#  18]+0.001*[#  26]+0.001*[#  29]
          
    |psi|^2 = 0.982
==== e(  20) =    12.87642 eV ==== 
     psi = 0.214*[#  27]+0.214*[#  28]+0.214*[#  30]+0.056*[#  14]+0.056*[#  15]
          +0.056*[#  17]+0.022*[#  26]+0.022*[#  29]+0.015*[#  13]+0.015*[#  16]
          +0.008*[#   2]+0.008*[#   3]+0.008*[#   4]+0.008*[#   6]+0.008*[#   7]
          +0.008*[#   8]+0.003*[#  31]+0.003*[#   1]+0.003*[#   5]+0.001*[#  18]
          
    |psi|^2 = 0.946
==== e(  21) =    13.30607 eV ==== 
     psi = 0.284*[#  13]+0.284*[#  16]+0.032*[#   2]+0.032*[#   3]+0.032*[#   4]
          +0.032*[#   6]+0.032*[#   7]+0.032*[#   8]+0.027*[#  14]+0.027*[#  15]
          +0.027*[#  17]+0.019*[#   1]+0.019*[#   5]+0.017*[#  27]+0.017*[#  28]
          +0.017*[#  30]+0.013*[#  26]+0.013*[#  29]+0.013*[#  31]+0.009*[#  32]
          +0.009*[#  33]+0.009*[#  34]+0.003*[#  18]
    |psi|^2 = 0.998
==== e(  22) =    13.39977 eV ==== 
     psi = 0.178*[#  13]+0.178*[#  16]+0.098*[#  27]+0.098*[#  28]+0.098*[#  30]
          +0.031*[#   2]+0.031*[#   3]+0.031*[#   4]+0.031*[#   6]+0.031*[#   7]
          +0.031*[#   8]+0.028*[#  14]+0.028*[#  15]+0.028*[#  17]+0.020*[#  26]
          +0.020*[#  29]+0.010*[#  32]+0.010*[#  33]+0.010*[#  34]
    |psi|^2 = 0.989
==== e(  23) =    13.78034 eV ==== 
     psi = 0.220*[#  27]+0.220*[#  28]+0.220*[#  30]+0.070*[#  13]+0.070*[#  16]
          +0.030*[#   2]+0.030*[#   3]+0.030*[#   4]+0.030*[#   6]+0.030*[#   7]
          +0.030*[#   8]+0.009*[#  14]+0.009*[#  15]+0.009*[#  17]+0.005*[#  32]
          +0.005*[#  33]+0.005*[#  34]+0.002*[#  26]+0.002*[#  29]
    |psi|^2 = 1.027
==== e(  24) =    13.84631 eV ==== 
     psi = 0.298*[#  27]+0.298*[#  28]+0.298*[#  30]+0.011*[#   2]+0.011*[#   3]
          +0.011*[#   4]+0.011*[#   6]+0.011*[#   7]+0.011*[#   8]+0.007*[#  13]
          +0.007*[#  16]+0.003*[#  31]
    |psi|^2 = 0.979
==== e(  25) =    15.27386 eV ==== 
     psi = 0.381*[#  26]+0.381*[#  29]+0.025*[#   1]+0.025*[#   5]+0.021*[#   2]
          +0.021*[#   3]+0.021*[#   4]+0.021*[#   6]+0.021*[#   7]+0.021*[#   8]
          +0.009*[#  19]+0.009*[#  20]+0.009*[#  21]+0.009*[#  18]+0.005*[#  13]
          +0.005*[#  16]+0.004*[#  27]+0.004*[#  28]+0.004*[#  30]+0.001*[#  32]
          +0.001*[#  33]+0.001*[#  34]
    |psi|^2 = 0.999
==== e(  26) =    15.29850 eV ==== 
     psi = 0.379*[#  26]+0.379*[#  29]+0.026*[#   2]+0.026*[#   3]+0.026*[#   4]
          +0.026*[#   6]+0.026*[#   7]+0.026*[#   8]+0.009*[#  19]+0.009*[#  20]
          +0.009*[#  21]+0.007*[#  13]+0.007*[#  16]+0.004*[#  27]+0.004*[#  28]
          +0.004*[#  30]
    |psi|^2 = 0.965
==== e(  27) =    21.19396 eV ==== 
     psi = 0.188*[#  18]+0.146*[#  31]+0.059*[#   1]+0.059*[#   5]+0.052*[#   2]
          +0.052*[#   3]+0.052*[#   4]+0.052*[#   6]+0.052*[#   7]+0.052*[#   8]
          +0.037*[#  32]+0.037*[#  33]+0.037*[#  34]+0.037*[#  19]+0.037*[#  20]
          +0.037*[#  21]+0.007*[#  26]+0.007*[#  29]+0.003*[#  13]+0.003*[#  16]
          
    |psi|^2 = 1.012
==== e(  28) =    22.67746 eV ==== 
     psi = 0.283*[#  31]+0.271*[#  18]+0.031*[#   1]+0.031*[#   5]+0.030*[#  19]
          +0.030*[#  20]+0.030*[#  21]+0.021*[#  32]+0.021*[#  33]+0.021*[#  34]
          +0.011*[#   2]+0.011*[#   3]+0.011*[#   4]+0.011*[#   6]+0.011*[#   7]
          +0.011*[#   8]+0.001*[#  27]+0.001*[#  28]+0.001*[#  30]
    |psi|^2 = 0.845
==== e(  29) =    23.96366 eV ==== 
     psi = 0.152*[#  18]+0.120*[#  31]+0.074*[#  32]+0.074*[#  33]+0.074*[#  34]
          +0.059*[#  19]+0.059*[#  20]+0.059*[#  21]+0.031*[#   2]+0.031*[#   3]
          +0.031*[#   4]+0.031*[#   6]+0.031*[#   7]+0.031*[#   8]+0.020*[#   1]
          +0.020*[#   5]+0.003*[#  27]+0.003*[#  28]+0.003*[#  30]+0.002*[#  14]
          +0.002*[#  15]+0.002*[#  17]+0.002*[#  26]+0.002*[#  29]+0.001*[#  13]
          +0.001*[#  16]
    |psi|^2 = 0.920
==== e(  30) =    25.02453 eV ==== 
     psi = 0.242*[#  31]+0.178*[#  18]+0.062*[#  19]+0.062*[#  20]+0.062*[#  21]
          +0.050*[#  32]+0.050*[#  33]+0.050*[#  34]+0.015*[#   2]+0.015*[#   3]
          +0.015*[#   4]+0.015*[#   6]+0.015*[#   7]+0.015*[#   8]+0.009*[#   1]
          +0.009*[#   5]+0.003*[#  22]+0.002*[#   9]+0.002*[#  27]+0.002*[#  28]
          +0.002*[#  30]+0.001*[#  14]+0.001*[#  15]+0.001*[#  17]
    |psi|^2 = 0.880

 k =  -0.7500000000  0.2500000000  0.2500000000
==== e(   1) =   -89.99387 eV ==== 
     psi = 0.993*[#   9]
    |psi|^2 = 1.000
==== e(   2) =   -88.12820 eV ==== 
     psi = 0.993*[#  22]+0.001*[#  19]+0.001*[#  20]+0.001*[#  21]+0.001*[#  32]
          +0.001*[#  33]+0.001*[#  34]
    |psi|^2 = 1.003
==== e(   3) =   -50.39660 eV ==== 
     psi = 0.213*[#  10]+0.213*[#  11]+0.213*[#  12]
    |psi|^2 = 0.643
==== e(   4) =   -50.39138 eV ==== 
     psi = 0.285*[#  10]+0.285*[#  11]+0.285*[#  12]+0.001*[#  19]+0.001*[#  20]
          +0.001*[#  21]
    |psi|^2 = 0.863
==== e(   5) =   -50.37403 eV ==== 
     psi = 0.333*[#  10]+0.333*[#  11]+0.333*[#  12]
    |psi|^2 = 1.000
==== e(   6) =   -48.59316 eV ==== 
     psi = 0.272*[#  23]+0.272*[#  24]+0.272*[#  25]
    |psi|^2 = 0.818
==== e(   7) =   -48.58315 eV ==== 
     psi = 0.287*[#  23]+0.287*[#  24]+0.287*[#  25]
    |psi|^2 = 0.863
==== e(   8) =   -48.57367 eV ==== 
     psi = 0.378*[#  23]+0.378*[#  24]+0.378*[#  25]
    |psi|^2 = 1.137
==== e(   9) =    -4.50669 eV ==== 
     psi = 0.403*[#   1]+0.403*[#   5]+0.050*[#  32]+0.050*[#  33]+0.050*[#  34]
          +0.016*[#  18]+0.013*[#  13]+0.013*[#  16]
    |psi|^2 = 0.999
==== e(  10) =    -4.49173 eV ==== 
     psi = 0.404*[#   1]+0.404*[#   5]+0.034*[#  19]+0.034*[#  20]+0.034*[#  21]
          +0.018*[#  32]+0.018*[#  33]+0.018*[#  34]+0.015*[#  31]+0.011*[#  26]
          +0.011*[#  29]
    |psi|^2 = 1.005
==== e(  11) =     7.17146 eV ==== 
     psi = 0.103*[#  18]+0.085*[#   2]+0.085*[#   3]+0.085*[#   4]+0.085*[#   6]
          +0.085*[#   7]+0.085*[#   8]+0.052*[#  32]+0.052*[#  33]+0.052*[#  34]
          +0.029*[#  14]+0.029*[#  15]+0.029*[#  17]+0.016*[#  19]+0.016*[#  20]
          +0.016*[#  21]+0.012*[#  13]+0.012*[#  16]+0.003*[#   1]+0.003*[#   5]
          +0.003*[#   9]
    |psi|^2 = 0.941
==== e(  12) =     7.25877 eV ==== 
     psi = 0.107*[#  31]+0.087*[#   2]+0.087*[#   3]+0.087*[#   4]+0.087*[#   6]
          +0.087*[#   7]+0.087*[#   8]+0.070*[#  19]+0.070*[#  20]+0.070*[#  21]
          +0.024*[#  27]+0.024*[#  28]+0.024*[#  30]+0.005*[#  26]+0.005*[#  29]
          +0.004*[#   1]+0.004*[#   5]+0.003*[#  22]
    |psi|^2 = 0.931
==== e(  13) =     8.51802 eV ==== 
     psi = 0.103*[#  13]+0.103*[#  16]+0.097*[#   2]+0.097*[#   3]+0.097*[#   4]
          +0.097*[#   6]+0.097*[#   7]+0.097*[#   8]+0.031*[#  32]+0.031*[#  33]
          +0.031*[#  34]+0.030*[#  14]+0.030*[#  15]+0.030*[#  17]+0.024*[#  18]
          
    |psi|^2 = 0.997
==== e(  14) =     8.85126 eV ==== 
     psi = 0.103*[#   2]+0.103*[#   3]+0.103*[#   4]+0.103*[#   6]+0.103*[#   7]
          +0.103*[#   8]+0.060*[#  26]+0.060*[#  29]+0.026*[#  19]+0.026*[#  20]
          +0.026*[#  21]+0.024*[#  27]+0.024*[#  28]+0.024*[#  30]+0.023*[#  31]
          +0.013*[#  32]+0.013*[#  33]+0.013*[#  34]+0.001*[#   1]+0.001*[#   5]
          
    |psi|^2 = 0.958
==== e(  15) =     9.09253 eV ==== 
     psi = 0.178*[#  13]+0.178*[#  16]+0.084*[#   2]+0.084*[#   3]+0.084*[#   4]
          +0.084*[#   6]+0.084*[#   7]+0.084*[#   8]+0.011*[#  14]+0.011*[#  15]
          +0.011*[#  17]+0.009*[#  19]+0.009*[#  20]+0.009*[#  21]+0.008*[#  32]
          +0.008*[#  33]+0.008*[#  34]
    |psi|^2 = 0.940
==== e(  16) =     9.61204 eV ==== 
     psi = 0.098*[#   2]+0.098*[#   3]+0.098*[#   4]+0.098*[#   6]+0.098*[#   7]
          +0.098*[#   8]+0.093*[#  26]+0.093*[#  29]+0.028*[#  19]+0.028*[#  20]
          +0.028*[#  21]+0.010*[#  27]+0.010*[#  28]+0.010*[#  30]
    |psi|^2 = 0.890
==== e(  17) =    11.85589 eV ==== 
     psi = 0.271*[#  14]+0.271*[#  15]+0.271*[#  17]+0.059*[#  13]+0.059*[#  16]
          +0.007*[#   2]+0.007*[#   3]+0.007*[#   4]+0.007*[#   6]+0.007*[#   7]
          +0.007*[#   8]+0.005*[#   1]+0.005*[#   5]+0.005*[#  18]+0.001*[#  32]
          +0.001*[#  33]+0.001*[#  34]
    |psi|^2 = 0.991
==== e(  18) =    12.51989 eV ==== 
     psi = 0.285*[#  14]+0.285*[#  15]+0.285*[#  17]+0.068*[#  13]+0.068*[#  16]
          
    |psi|^2 = 0.998
==== e(  19) =    12.83235 eV ==== 
     psi = 0.297*[#  14]+0.297*[#  15]+0.297*[#  17]+0.011*[#  18]+0.009*[#   2]
          +0.009*[#   3]+0.009*[#   4]+0.009*[#   6]+0.009*[#   7]+0.009*[#   8]
          +0.006*[#  13]+0.006*[#  16]
    |psi|^2 = 0.972
==== e(  20) =    12.83414 eV ==== 
     psi = 0.288*[#  27]+0.288*[#  28]+0.288*[#  30]+0.017*[#  26]+0.017*[#  29]
          +0.006*[#   2]+0.006*[#   3]+0.006*[#   4]+0.006*[#   6]+0.006*[#   7]
          +0.006*[#   8]+0.006*[#  31]+0.002*[#   1]+0.002*[#   5]
    |psi|^2 = 0.947
==== e(  21) =    13.42999 eV ==== 
     psi = 0.303*[#  13]+0.303*[#  16]+0.037*[#   2]+0.037*[#   3]+0.037*[#   4]
          +0.037*[#   6]+0.037*[#   7]+0.037*[#   8]+0.028*[#  14]+0.028*[#  15]
          +0.028*[#  17]+0.021*[#   1]+0.021*[#   5]+0.014*[#  32]+0.014*[#  33]
          +0.014*[#  34]+0.002*[#  18]
    |psi|^2 = 0.999
==== e(  22) =    13.57290 eV ==== 
     psi = 0.253*[#  13]+0.253*[#  16]+0.048*[#   2]+0.048*[#   3]+0.048*[#   4]
          +0.048*[#   6]+0.048*[#   7]+0.048*[#   8]+0.037*[#  14]+0.037*[#  15]
          +0.037*[#  17]+0.016*[#  32]+0.016*[#  33]+0.016*[#  34]
    |psi|^2 = 0.953
==== e(  23) =    13.68979 eV ==== 
     psi = 0.317*[#  27]+0.317*[#  28]+0.317*[#  30]+0.030*[#   2]+0.030*[#   3]
          +0.030*[#   4]+0.030*[#   6]+0.030*[#   7]+0.030*[#   8]+0.019*[#  26]
          +0.019*[#  29]+0.006*[#  32]+0.006*[#  33]+0.006*[#  34]
    |psi|^2 = 1.185
==== e(  24) =    13.84504 eV ==== 
     psi = 0.309*[#  27]+0.309*[#  28]+0.309*[#  30]+0.008*[#   2]+0.008*[#   3]
          +0.008*[#   4]+0.008*[#   6]+0.008*[#   7]+0.008*[#   8]+0.006*[#  31]
          +0.002*[#  26]+0.002*[#  29]
    |psi|^2 = 0.983
==== e(  25) =    15.26734 eV ==== 
     psi = 0.386*[#  26]+0.386*[#  29]+0.031*[#   2]+0.031*[#   3]+0.031*[#   4]
          +0.031*[#   6]+0.031*[#   7]+0.031*[#   8]+0.008*[#  19]+0.008*[#  20]
          +0.008*[#  21]+0.006*[#  27]+0.006*[#  28]+0.006*[#  30]
    |psi|^2 = 0.998
==== e(  26) =    15.30058 eV ==== 
     psi = 0.395*[#  26]+0.395*[#  29]+0.024*[#   1]+0.024*[#   5]+0.014*[#   2]
          +0.014*[#   3]+0.014*[#   4]+0.014*[#   6]+0.014*[#   7]+0.014*[#   8]
          +0.009*[#  19]+0.009*[#  20]+0.009*[#  21]+0.006*[#  27]+0.006*[#  28]
          +0.006*[#  30]
    |psi|^2 = 0.966
==== e(  27) =    21.91186 eV ==== 
     psi = 0.431*[#  18]+0.063*[#  32]+0.063*[#  33]+0.063*[#  34]+0.045*[#   1]
          +0.045*[#   5]+0.029*[#   2]+0.029*[#   3]+0.029*[#   4]+0.029*[#   6]
          +0.029*[#   7]+0.029*[#   8]+0.003*[#  13]+0.003*[#  16]+0.002*[#  19]
          +0.002*[#  20]+0.002*[#  21]+0.002*[#  14]+0.002*[#  15]+0.002*[#  17]
          
    |psi|^2 = 0.902
==== e(  28) =    22.06424 eV ==== 
     psi = 0.400*[#  31]+0.076*[#  19]+0.076*[#  20]+0.076*[#  21]+0.045*[#   1]
          +0.045*[#   5]+0.034*[#   2]+0.034*[#   3]+0.034*[#   4]+0.034*[#   6]
          +0.034*[#   7]+0.034*[#   8]+0.006*[#  26]+0.006*[#  29]+0.002*[#  27]
          +0.002*[#  28]+0.002*[#  30]
    |psi|^2 = 0.942
==== e(  29) =    24.19027 eV ==== 
     psi = 0.385*[#  18]+0.117*[#  32]+0.117*[#  33]+0.117*[#  34]+0.024*[#   2]
          +0.024*[#   3]+0.024*[#   4]+0.024*[#   6]+0.024*[#   7]+0.024*[#   8]
          +0.013*[#   1]+0.013*[#   5]+0.003*[#   9]+0.003*[#  14]+0.003*[#  15]
          +0.003*[#  17]+0.001*[#  13]+0.001*[#  16]
    |psi|^2 = 0.919
==== e(  30) =    24.33279 eV ==== 
     psi = 0.416*[#  31]+0.110*[#  19]+0.110*[#  20]+0.110*[#  21]+0.023*[#   2]
          +0.023*[#   3]+0.023*[#   4]+0.023*[#   6]+0.023*[#   7]+0.023*[#   8]
          +0.011*[#   1]+0.011*[#   5]+0.004*[#  27]+0.004*[#  28]+0.004*[#  30]
          +0.003*[#  22]+0.002*[#  26]+0.002*[#  29]
    |psi|^2 = 0.925

 k =   0.0833333333  0.0833333333 -0.0833333333
==== e(   1) =   -89.99561 eV ==== 
     psi = 0.991*[#   9]+0.001*[#  31]
    |psi|^2 = 1.000
==== e(   2) =   -88.13009 eV ==== 
     psi = 0.991*[#  22]+0.001*[#  18]
    |psi|^2 = 1.000
==== e(   3) =   -50.39968 eV ==== 
     psi = 0.222*[#  10]+0.222*[#  11]+0.222*[#  12]+0.001*[#  32]+0.001*[#  33]
          +0.001*[#  34]
    |psi|^2 = 0.670
==== e(   4) =   -50.36969 eV ==== 
     psi = 0.111*[#  10]+0.111*[#  11]+0.111*[#  12]
    |psi|^2 = 0.335
==== e(   5) =   -50.36852 eV ==== 
     psi = 0.333*[#  10]+0.333*[#  11]+0.333*[#  12]
    |psi|^2 = 1.000
==== e(   6) =   -48.58639 eV ==== 
     psi = 0.222*[#  23]+0.222*[#  24]+0.222*[#  25]+0.166*[#  10]+0.166*[#  11]
          +0.166*[#  12]
    |psi|^2 = 1.168
==== e(   7) =   -48.56884 eV ==== 
     psi = 0.221*[#  23]+0.221*[#  24]+0.221*[#  25]
    |psi|^2 = 0.664
==== e(   8) =   -48.56753 eV ==== 
     psi = 0.444*[#  23]+0.444*[#  24]+0.444*[#  25]
    |psi|^2 = 1.334
==== e(   9) =    -5.85997 eV ==== 
     psi = 0.339*[#   1]+0.339*[#   5]+0.138*[#  18]+0.137*[#  31]+0.007*[#  19]
          +0.007*[#  20]+0.007*[#  21]+0.007*[#  32]+0.007*[#  33]+0.007*[#  34]
          +0.002*[#   9]+0.002*[#  22]
    |psi|^2 = 1.000
==== e(  10) =    -4.51857 eV ==== 
     psi = 0.375*[#   1]+0.375*[#   5]+0.029*[#  19]+0.029*[#  20]+0.029*[#  21]
          +0.029*[#  32]+0.029*[#  33]+0.029*[#  34]
    |psi|^2 = 0.931
==== e(  11) =     6.32192 eV ==== 
     psi = 0.116*[#  31]+0.113*[#  18]+0.067*[#   2]+0.067*[#   3]+0.067*[#   4]
          +0.067*[#   6]+0.067*[#   7]+0.067*[#   8]+0.022*[#  14]+0.022*[#  15]
          +0.022*[#  17]+0.017*[#  27]+0.017*[#  28]+0.017*[#  30]+0.015*[#  19]
          +0.015*[#  20]+0.015*[#  21]+0.015*[#  32]+0.015*[#  33]+0.015*[#  34]
          +0.002*[#  22]+0.002*[#   9]
    |psi|^2 = 0.846
==== e(  12) =     8.78078 eV ==== 
     psi = 0.141*[#  13]+0.141*[#  16]+0.044*[#  26]+0.044*[#  29]+0.033*[#   2]
          +0.033*[#   3]+0.033*[#   4]+0.033*[#   6]+0.033*[#   7]+0.033*[#   8]
          +0.014*[#  32]+0.014*[#  33]+0.014*[#  34]+0.014*[#  19]+0.014*[#  20]
          +0.014*[#  21]+0.010*[#  14]+0.010*[#  15]+0.010*[#  17]+0.006*[#  27]
          +0.006*[#  28]+0.006*[#  30]
    |psi|^2 = 0.706
==== e(  13) =     8.88476 eV ==== 
     psi = 0.150*[#  13]+0.150*[#  16]+0.092*[#   2]+0.092*[#   3]+0.092*[#   4]
          +0.092*[#   6]+0.092*[#   7]+0.092*[#   8]+0.045*[#  26]+0.045*[#  29]
          +0.009*[#  14]+0.009*[#  15]+0.009*[#  17]+0.006*[#  27]+0.006*[#  28]
          +0.006*[#  30]+0.001*[#  32]+0.001*[#  33]+0.001*[#  34]
    |psi|^2 = 0.997
==== e(  14) =    10.74158 eV ==== 
     psi = 0.125*[#   2]+0.125*[#   3]+0.125*[#   4]+0.125*[#   6]+0.125*[#   7]
          +0.125*[#   8]+0.034*[#  14]+0.034*[#  15]+0.034*[#  17]+0.025*[#  18]
          +0.022*[#  31]+0.015*[#  27]+0.015*[#  28]+0.015*[#  30]+0.011*[#   1]
          +0.011*[#   5]+0.003*[#  32]+0.003*[#  33]+0.003*[#  34]+0.002*[#  19]
          +0.002*[#  20]+0.002*[#  21]
    |psi|^2 = 0.983
==== e(  15) =    10.97192 eV ==== 
     psi = 0.166*[#   2]+0.166*[#   3]+0.166*[#   4]+0.166*[#   6]+0.166*[#   7]
          +0.166*[#   8]+0.053*[#  13]+0.053*[#  16]+0.041*[#  26]+0.041*[#  29]
          +0.022*[#  14]+0.022*[#  15]+0.022*[#  17]+0.006*[#  19]+0.006*[#  20]
          +0.006*[#  21]+0.004*[#  32]+0.004*[#  33]+0.004*[#  34]+0.002*[#  27]
          +0.002*[#  28]+0.002*[#  30]
    |psi|^2 = 1.288
==== e(  16) =    10.99394 eV ==== 
     psi = 0.088*[#   2]+0.088*[#   3]+0.088*[#   4]+0.088*[#   6]+0.088*[#   7]
          +0.088*[#   8]+0.051*[#  13]+0.051*[#  16]+0.044*[#  26]+0.044*[#  29]
          +0.008*[#  14]+0.008*[#  15]+0.008*[#  17]+0.007*[#  27]+0.007*[#  28]
          +0.007*[#  30]+0.003*[#  19]+0.003*[#  20]+0.003*[#  21]+0.002*[#  32]
          +0.002*[#  33]+0.002*[#  34]
    |psi|^2 = 0.780
==== e(  17) =    12.01704 eV ==== 
     psi = 0.255*[#  14]+0.255*[#  15]+0.255*[#  17]+0.042*[#  13]+0.042*[#  16]
          +0.033*[#  27]+0.033*[#  28]+0.033*[#  30]+0.005*[#   2]+0.005*[#   3]
          +0.005*[#   4]+0.005*[#   6]+0.005*[#   7]+0.005*[#   8]+0.005*[#  26]
          +0.005*[#  29]+0.003*[#  18]
    |psi|^2 = 0.993
==== e(  18) =    12.07429 eV ==== 
     psi = 0.265*[#  14]+0.265*[#  15]+0.265*[#  17]+0.037*[#  27]+0.037*[#  28]
          +0.037*[#  30]+0.012*[#   2]+0.012*[#   3]+0.012*[#   4]+0.012*[#   6]
          +0.012*[#   7]+0.012*[#   8]+0.011*[#  26]+0.011*[#  29]
    |psi|^2 = 1.003
==== e(  19) =    12.17631 eV ==== 
     psi = 0.244*[#  14]+0.244*[#  15]+0.244*[#  17]+0.038*[#  27]+0.038*[#  28]
          +0.038*[#  30]+0.007*[#  31]+0.005*[#   2]+0.005*[#   3]+0.005*[#   4]
          +0.005*[#   6]+0.005*[#   7]+0.005*[#   8]+0.003*[#  26]+0.003*[#  29]
          +0.002*[#   1]+0.002*[#   5]+0.001*[#  18]
    |psi|^2 = 0.899
==== e(  20) =    12.66538 eV ==== 
     psi = 0.232*[#  13]+0.232*[#  16]+0.063*[#  26]+0.063*[#  29]+0.052*[#  27]
          +0.052*[#  28]+0.052*[#  30]+0.042*[#   2]+0.042*[#   3]+0.042*[#   4]
          +0.042*[#   6]+0.042*[#   7]+0.042*[#   8]+0.006*[#  14]+0.006*[#  15]
          +0.006*[#  17]+0.003*[#  32]+0.003*[#  33]+0.003*[#  34]
    |psi|^2 = 1.028
==== e(  21) =    12.74775 eV ==== 
     psi = 0.201*[#  13]+0.201*[#  16]+0.058*[#  26]+0.058*[#  29]+0.057*[#  27]
          +0.057*[#  28]+0.057*[#  30]+0.044*[#   2]+0.044*[#   3]+0.044*[#   4]
          +0.044*[#   6]+0.044*[#   7]+0.044*[#   8]+0.009*[#  14]+0.009*[#  15]
          +0.009*[#  17]+0.004*[#  32]+0.004*[#  33]+0.004*[#  34]+0.001*[#   1]
          +0.001*[#   5]
    |psi|^2 = 0.995
==== e(  22) =    13.29859 eV ==== 
     psi = 0.232*[#  27]+0.232*[#  28]+0.232*[#  30]+0.060*[#  26]+0.060*[#  29]
          +0.030*[#  14]+0.030*[#  15]+0.030*[#  17]+0.016*[#   2]+0.016*[#   3]
          +0.016*[#   4]+0.016*[#   6]+0.016*[#   7]+0.016*[#   8]+0.012*[#  13]
          +0.012*[#  16]+0.001*[#  31]
    |psi|^2 = 1.030
==== e(  23) =    13.39598 eV ==== 
     psi = 0.229*[#  27]+0.229*[#  28]+0.229*[#  30]+0.059*[#  26]+0.059*[#  29]
          +0.027*[#  14]+0.027*[#  15]+0.027*[#  17]+0.018*[#   2]+0.018*[#   3]
          +0.018*[#   4]+0.018*[#   6]+0.018*[#   7]+0.018*[#   8]+0.015*[#  13]
          +0.015*[#  16]
    |psi|^2 = 1.030
==== e(  24) =    13.57239 eV ==== 
     psi = 0.247*[#  27]+0.247*[#  28]+0.247*[#  30]+0.047*[#  14]+0.047*[#  15]
          +0.047*[#  17]+0.010*[#   2]+0.010*[#   3]+0.010*[#   4]+0.010*[#   6]
          +0.010*[#   7]+0.010*[#   8]+0.007*[#  18]+0.005*[#  31]+0.002*[#  26]
          +0.002*[#  29]
    |psi|^2 = 0.963
==== e(  25) =    15.66535 eV ==== 
     psi = 0.279*[#  26]+0.279*[#  29]+0.048*[#   2]+0.048*[#   3]+0.048*[#   4]
          +0.048*[#   6]+0.048*[#   7]+0.048*[#   8]+0.048*[#  13]+0.048*[#  16]
          +0.007*[#   1]+0.007*[#   5]+0.005*[#  27]+0.005*[#  28]+0.005*[#  30]
          +0.004*[#  19]+0.004*[#  20]+0.004*[#  21]+0.002*[#  14]+0.002*[#  15]
          +0.002*[#  17]+0.002*[#  32]+0.002*[#  33]+0.002*[#  34]
    |psi|^2 = 0.998
==== e(  26) =    15.72257 eV ==== 
     psi = 0.277*[#  26]+0.277*[#  29]+0.062*[#   2]+0.062*[#   3]+0.062*[#   4]
          +0.062*[#   6]+0.062*[#   7]+0.062*[#   8]+0.050*[#  13]+0.050*[#  16]
          +0.004*[#  27]+0.004*[#  28]+0.004*[#  30]+0.002*[#  19]+0.002*[#  20]
          +0.002*[#  21]+0.002*[#  14]+0.002*[#  15]+0.002*[#  17]
    |psi|^2 = 1.053
==== e(  27) =    16.52426 eV ==== 
     psi = 0.300*[#  18]+0.284*[#  31]+0.144*[#   1]+0.144*[#   5]+0.007*[#   2]
          +0.007*[#   3]+0.007*[#   4]+0.007*[#   6]+0.007*[#   7]+0.007*[#   8]
          +0.006*[#  32]+0.006*[#  33]+0.006*[#  34]+0.006*[#  19]+0.006*[#  20]
          +0.006*[#  21]
    |psi|^2 = 0.955
==== e(  28) =    20.44210 eV ==== 
     psi = 0.107*[#   1]+0.107*[#   5]+0.077*[#  19]+0.077*[#  20]+0.077*[#  21]
          +0.075*[#  32]+0.075*[#  33]+0.075*[#  34]+0.027*[#   2]+0.027*[#   3]
          +0.027*[#   4]+0.027*[#   6]+0.027*[#   7]+0.027*[#   8]+0.003*[#  31]
          +0.003*[#  18]+0.003*[#  26]+0.003*[#  29]+0.001*[#  13]+0.001*[#  16]
          
    |psi|^2 = 0.850
==== e(  29) =    24.43498 eV ==== 
     psi = 0.354*[#  31]+0.343*[#  18]+0.040*[#   2]+0.040*[#   3]+0.040*[#   4]
          +0.040*[#   6]+0.040*[#   7]+0.040*[#   8]+0.002*[#  32]+0.002*[#  33]
          +0.002*[#  34]+0.002*[#   9]+0.002*[#  19]+0.002*[#  20]+0.002*[#  21]
          +0.002*[#  22]+0.001*[#  27]+0.001*[#  28]+0.001*[#  30]
    |psi|^2 = 0.956
==== e(  30) =    27.91456 eV ==== 
     psi = 0.152*[#  19]+0.152*[#  20]+0.152*[#  21]+0.143*[#  32]+0.143*[#  33]
          +0.143*[#  34]+0.010*[#  18]+0.010*[#  31]+0.002*[#   2]+0.002*[#   3]
          +0.002*[#   4]+0.002*[#   6]+0.002*[#   7]+0.002*[#   8]
    |psi|^2 = 0.919

 k =   0.2083333333  0.0416666667 -0.1250000000
==== e(   1) =   -89.99537 eV ==== 
     psi = 0.988*[#   9]+0.002*[#  19]+0.002*[#  20]+0.002*[#  21]
    |psi|^2 = 1.000
==== e(   2) =   -88.12984 eV ==== 
     psi = 0.988*[#  22]+0.002*[#  19]+0.002*[#  20]+0.002*[#  21]+0.002*[#  32]
          +0.002*[#  33]+0.002*[#  34]
    |psi|^2 = 1.002
==== e(   3) =   -50.39927 eV ==== 
     psi = 0.222*[#  10]+0.222*[#  11]+0.222*[#  12]+0.001*[#  32]+0.001*[#  33]
          +0.001*[#  34]
    |psi|^2 = 0.671
==== e(   4) =   -50.37252 eV ==== 
     psi = 0.167*[#  10]+0.167*[#  11]+0.167*[#  12]
    |psi|^2 = 0.507
==== e(   5) =   -50.36934 eV ==== 
     psi = 0.333*[#  10]+0.333*[#  11]+0.333*[#  12]
    |psi|^2 = 1.000
==== e(   6) =   -48.58596 eV ==== 
     psi = 0.222*[#  23]+0.222*[#  24]+0.222*[#  25]+0.056*[#  10]+0.056*[#  11]
          +0.056*[#  12]
    |psi|^2 = 0.836
==== e(   7) =   -48.57201 eV ==== 
     psi = 0.276*[#  23]+0.276*[#  24]+0.276*[#  25]
    |psi|^2 = 0.831
==== e(   8) =   -48.56844 eV ==== 
     psi = 0.387*[#  23]+0.387*[#  24]+0.387*[#  25]
    |psi|^2 = 1.164
==== e(   9) =    -5.71211 eV ==== 
     psi = 0.337*[#   1]+0.337*[#   5]+0.111*[#  18]+0.110*[#  31]+0.016*[#  19]
          +0.016*[#  20]+0.016*[#  21]+0.016*[#  32]+0.016*[#  33]+0.016*[#  34]
          +0.002*[#   9]+0.002*[#  22]
    |psi|^2 = 1.000
==== e(  10) =    -4.50411 eV ==== 
     psi = 0.382*[#   1]+0.382*[#   5]+0.035*[#  19]+0.035*[#  20]+0.035*[#  21]
          +0.035*[#  32]+0.035*[#  33]+0.035*[#  34]+0.002*[#  13]+0.002*[#  16]
          +0.002*[#  26]+0.002*[#  29]+0.002*[#  18]+0.002*[#  31]
    |psi|^2 = 0.991
==== e(  11) =     6.57264 eV ==== 
     psi = 0.101*[#  31]+0.099*[#  18]+0.063*[#   2]+0.063*[#   3]+0.063*[#   4]
          +0.063*[#   6]+0.063*[#   7]+0.063*[#   8]+0.021*[#  14]+0.021*[#  15]
          +0.021*[#  17]+0.017*[#  32]+0.017*[#  33]+0.017*[#  34]+0.017*[#  19]
          +0.017*[#  20]+0.017*[#  21]+0.016*[#  27]+0.016*[#  28]+0.016*[#  30]
          +0.002*[#  22]+0.002*[#   9]+0.001*[#   1]+0.001*[#   5]+0.001*[#  13]
          +0.001*[#  16]
    |psi|^2 = 0.806
==== e(  12) =     8.71331 eV ==== 
     psi = 0.122*[#  13]+0.122*[#  16]+0.047*[#   2]+0.047*[#   3]+0.047*[#   4]
          +0.047*[#   6]+0.047*[#   7]+0.047*[#   8]+0.033*[#  26]+0.033*[#  29]
          +0.014*[#  32]+0.014*[#  33]+0.014*[#  34]+0.014*[#  19]+0.014*[#  20]
          +0.014*[#  21]+0.013*[#  14]+0.013*[#  15]+0.013*[#  17]+0.007*[#  27]
          +0.007*[#  28]+0.007*[#  30]
    |psi|^2 = 0.741
==== e(  13) =     8.91643 eV ==== 
     psi = 0.152*[#  13]+0.152*[#  16]+0.094*[#   2]+0.094*[#   3]+0.094*[#   4]
          +0.094*[#   6]+0.094*[#   7]+0.094*[#   8]+0.040*[#  26]+0.040*[#  29]
          +0.006*[#  14]+0.006*[#  15]+0.006*[#  17]+0.006*[#  27]+0.006*[#  28]
          +0.006*[#  30]+0.003*[#  32]+0.003*[#  33]+0.003*[#  34]+0.003*[#  19]
          +0.003*[#  20]+0.003*[#  21]+0.001*[#  31]
    |psi|^2 = 0.997
==== e(  14) =     9.82069 eV ==== 
     psi = 0.123*[#   2]+0.123*[#   3]+0.123*[#   4]+0.123*[#   6]+0.123*[#   7]
          +0.123*[#   8]+0.040*[#  18]+0.037*[#  26]+0.037*[#  29]+0.033*[#  31]
          +0.024*[#  13]+0.024*[#  16]+0.018*[#   1]+0.018*[#   5]+0.016*[#  14]
          +0.016*[#  15]+0.016*[#  17]+0.007*[#  27]+0.007*[#  28]+0.007*[#  30]
          +0.003*[#  19]+0.003*[#  20]+0.003*[#  21]+0.002*[#  32]+0.002*[#  33]
          +0.002*[#  34]
    |psi|^2 = 1.055
==== e(  15) =    10.51241 eV ==== 
     psi = 0.067*[#  13]+0.067*[#  16]+0.049*[#  26]+0.049*[#  29]+0.036*[#   2]
          +0.036*[#   3]+0.036*[#   4]+0.036*[#   6]+0.036*[#   7]+0.036*[#   8]
          +0.020*[#  14]+0.020*[#  15]+0.020*[#  17]+0.006*[#  27]+0.006*[#  28]
          +0.006*[#  30]+0.003*[#  18]+0.003*[#  31]+0.001*[#   1]+0.001*[#   5]
          +0.001*[#  19]+0.001*[#  20]+0.001*[#  21]
    |psi|^2 = 0.545
==== e(  16) =    10.75321 eV ==== 
     psi = 0.202*[#   2]+0.202*[#   3]+0.202*[#   4]+0.202*[#   6]+0.202*[#   7]
          +0.202*[#   8]+0.051*[#  14]+0.051*[#  15]+0.051*[#  17]+0.025*[#  27]
          +0.025*[#  28]+0.025*[#  30]+0.012*[#  26]+0.012*[#  29]+0.010*[#  13]
          +0.010*[#  16]+0.008*[#  19]+0.008*[#  20]+0.008*[#  21]+0.007*[#  32]
          +0.007*[#  33]+0.007*[#  34]
    |psi|^2 = 1.527
==== e(  17) =    12.02288 eV ==== 
     psi = 0.272*[#  14]+0.272*[#  15]+0.272*[#  17]+0.047*[#  27]+0.047*[#  28]
          +0.047*[#  30]+0.004*[#  13]+0.004*[#  16]+0.003*[#   2]+0.003*[#   3]
          +0.003*[#   4]+0.003*[#   6]+0.003*[#   7]+0.003*[#   8]+0.001*[#  26]
          +0.001*[#  29]+0.001*[#  18]
    |psi|^2 = 0.992
==== e(  18) =    12.25166 eV ==== 
     psi = 0.203*[#  14]+0.203*[#  15]+0.203*[#  17]+0.072*[#  13]+0.072*[#  16]
          +0.029*[#  26]+0.029*[#  29]+0.021*[#   2]+0.021*[#   3]+0.021*[#   4]
          +0.021*[#   6]+0.021*[#   7]+0.021*[#   8]+0.016*[#  27]+0.016*[#  28]
          +0.016*[#  30]+0.001*[#  18]
    |psi|^2 = 0.985
==== e(  19) =    12.34191 eV ==== 
     psi = 0.264*[#  14]+0.264*[#  15]+0.264*[#  17]+0.019*[#  27]+0.019*[#  28]
          +0.019*[#  30]+0.010*[#  26]+0.010*[#  29]+0.008*[#   2]+0.008*[#   3]
          +0.008*[#   4]+0.008*[#   6]+0.008*[#   7]+0.008*[#   8]+0.007*[#  31]
          +0.003*[#   1]+0.003*[#   5]+0.002*[#  18]
    |psi|^2 = 0.939
==== e(  20) =    12.67573 eV ==== 
     psi = 0.218*[#  13]+0.218*[#  16]+0.064*[#  26]+0.064*[#  29]+0.040*[#  14]
          +0.040*[#  15]+0.040*[#  17]+0.036*[#  27]+0.036*[#  28]+0.036*[#  30]
          +0.028*[#   2]+0.028*[#   3]+0.028*[#   4]+0.028*[#   6]+0.028*[#   7]
          +0.028*[#   8]+0.010*[#  31]+0.003*[#   1]+0.003*[#   5]+0.002*[#  18]
          +0.001*[#  32]+0.001*[#  33]+0.001*[#  34]
    |psi|^2 = 0.987
==== e(  21) =    13.02519 eV ==== 
[...]
     psi = 0.981*[#   9]+0.003*[#  32]+0.003*[#  33]+0.003*[#  34]+0.002*[#  19]
          +0.002*[#  20]+0.002*[#  21]
    |psi|^2 = 1.000
==== e(   3) =   -50.39917 eV ==== 
     psi = 0.222*[#  23]+0.222*[#  24]+0.222*[#  25]+0.001*[#  32]+0.001*[#  33]
          +0.001*[#  34]
    |psi|^2 = 0.674
==== e(   4) =   -50.37253 eV ==== 
     psi = 0.166*[#  23]+0.166*[#  24]+0.166*[#  25]+0.001*[#  32]+0.001*[#  33]
          +0.001*[#  34]
    |psi|^2 = 0.507
==== e(   5) =   -50.36935 eV ==== 
     psi = 0.333*[#  23]+0.333*[#  24]+0.333*[#  25]
    |psi|^2 = 1.000
==== e(   6) =   -48.58608 eV ==== 
     psi = 0.222*[#  10]+0.222*[#  11]+0.222*[#  12]+0.056*[#  23]+0.056*[#  24]
          +0.056*[#  25]
    |psi|^2 = 0.836
==== e(   7) =   -48.57201 eV ==== 
     psi = 0.277*[#  10]+0.277*[#  11]+0.277*[#  12]
    |psi|^2 = 0.832
==== e(   8) =   -48.56844 eV ==== 
     psi = 0.387*[#  10]+0.387*[#  11]+0.387*[#  12]
    |psi|^2 = 1.164
==== e(   9) =    -5.15381 eV ==== 
     psi = 0.350*[#   1]+0.350*[#   5]+0.095*[#  31]+0.052*[#  19]+0.052*[#  20]
          +0.052*[#  21]+0.012*[#  32]+0.012*[#  33]+0.012*[#  34]+0.003*[#  22]
          +0.002*[#  13]+0.002*[#  16]
    |psi|^2 = 1.000
==== e(  10) =    -5.15109 eV ==== 
     psi = 0.350*[#   1]+0.350*[#   5]+0.095*[#  18]+0.042*[#  32]+0.042*[#  33]
          +0.042*[#  34]+0.022*[#  19]+0.022*[#  20]+0.022*[#  21]+0.003*[#   9]
          +0.002*[#  26]+0.002*[#  29]
    |psi|^2 = 1.000
==== e(  11) =     7.89709 eV ==== 
     psi = 0.116*[#  18]+0.073*[#  26]+0.073*[#  29]+0.062*[#   2]+0.062*[#   3]
          +0.062*[#   4]+0.062*[#   6]+0.062*[#   7]+0.062*[#   8]+0.020*[#   1]
          +0.020*[#   5]+0.017*[#  32]+0.017*[#  33]+0.017*[#  34]+0.013*[#  14]
          +0.013*[#  15]+0.013*[#  17]+0.009*[#  19]+0.009*[#  20]+0.009*[#  21]
          +0.005*[#  27]+0.005*[#  28]+0.005*[#  30]+0.003*[#   9]
    |psi|^2 = 0.809
==== e(  12) =     8.05850 eV ==== 
     psi = 0.129*[#  31]+0.066*[#   2]+0.066*[#   3]+0.066*[#   4]+0.066*[#   6]
          +0.066*[#   7]+0.066*[#   8]+0.033*[#  13]+0.033*[#  16]+0.025*[#   1]
          +0.025*[#   5]+0.024*[#  27]+0.024*[#  28]+0.024*[#  30]+0.019*[#  32]
          +0.019*[#  33]+0.019*[#  34]+0.007*[#  19]+0.007*[#  20]+0.007*[#  21]
          +0.003*[#  14]+0.003*[#  15]+0.003*[#  17]+0.003*[#  22]+0.002*[#  26]
          +0.002*[#  29]
    |psi|^2 = 0.806
==== e(  13) =     9.30113 eV ==== 
     psi = 0.202*[#  26]+0.202*[#  29]+0.088*[#   2]+0.088*[#   3]+0.088*[#   4]
          +0.088*[#   6]+0.088*[#   7]+0.088*[#   8]+0.012*[#  13]+0.012*[#  16]
          +0.009*[#  27]+0.009*[#  28]+0.009*[#  30]+0.004*[#  31]+0.002*[#  19]
          +0.002*[#  20]+0.002*[#  21]
    |psi|^2 = 0.997
==== e(  14) =     9.61215 eV ==== 
     psi = 0.084*[#   2]+0.084*[#   3]+0.084*[#   4]+0.084*[#   6]+0.084*[#   7]
          +0.084*[#   8]+0.076*[#  26]+0.076*[#  29]+0.032*[#  13]+0.032*[#  16]
          +0.029*[#  14]+0.029*[#  15]+0.029*[#  17]+0.017*[#  18]+0.005*[#  32]
          +0.005*[#  33]+0.005*[#  34]+0.005*[#  27]+0.005*[#  28]+0.005*[#  30]
          +0.003*[#  19]+0.003*[#  20]+0.003*[#  21]+0.001*[#   1]+0.001*[#   5]
          
    |psi|^2 = 0.865
==== e(  15) =     9.82226 eV ==== 
     psi = 0.082*[#   2]+0.082*[#   3]+0.082*[#   4]+0.082*[#   6]+0.082*[#   7]
          +0.082*[#   8]+0.060*[#  27]+0.060*[#  28]+0.060*[#  30]+0.022*[#  13]
          +0.022*[#  16]+0.019*[#  14]+0.019*[#  15]+0.019*[#  17]+0.010*[#  19]
          +0.010*[#  20]+0.010*[#  21]+0.009*[#  32]+0.009*[#  33]+0.009*[#  34]
          +0.005*[#  26]+0.005*[#  29]
    |psi|^2 = 0.837
==== e(  16) =     9.94664 eV ==== 
     psi = 0.109*[#   2]+0.109*[#   3]+0.109*[#   4]+0.109*[#   6]+0.109*[#   7]
          +0.109*[#   8]+0.064*[#  13]+0.064*[#  16]+0.028*[#  27]+0.028*[#  28]
          +0.028*[#  30]+0.020*[#  14]+0.020*[#  15]+0.020*[#  17]+0.008*[#  32]
          +0.008*[#  33]+0.008*[#  34]+0.007*[#  19]+0.007*[#  20]+0.007*[#  21]
          
    |psi|^2 = 0.974
==== e(  17) =    12.04219 eV ==== 
     psi = 0.236*[#  27]+0.236*[#  28]+0.236*[#  30]+0.070*[#  26]+0.070*[#  29]
          +0.023*[#  14]+0.023*[#  15]+0.023*[#  17]+0.014*[#  13]+0.014*[#  16]
          +0.007*[#   2]+0.007*[#   3]+0.007*[#   4]+0.007*[#   6]+0.007*[#   7]
          +0.007*[#   8]+0.002*[#  18]+0.002*[#   1]+0.002*[#   5]
    |psi|^2 = 0.993
==== e(  18) =    12.05658 eV ==== 
     psi = 0.288*[#  27]+0.288*[#  28]+0.288*[#  30]+0.023*[#  26]+0.023*[#  29]
          +0.020*[#  14]+0.020*[#  15]+0.020*[#  17]+0.004*[#   2]+0.004*[#   3]
          +0.004*[#   4]+0.004*[#   6]+0.004*[#   7]+0.004*[#   8]+0.002*[#  31]
          +0.001*[#  13]+0.001*[#  16]
    |psi|^2 = 1.004
==== e(  19) =    12.69296 eV ==== 
     psi = 0.234*[#  27]+0.234*[#  28]+0.234*[#  30]+0.022*[#   2]+0.022*[#   3]
          +0.022*[#   4]+0.022*[#   6]+0.022*[#   7]+0.022*[#   8]+0.015*[#  13]
          +0.015*[#  16]+0.011*[#  31]+0.010*[#  26]+0.010*[#  29]+0.003*[#   1]
          +0.003*[#   5]+0.002*[#  14]+0.002*[#  15]+0.002*[#  17]
    |psi|^2 = 0.906
==== e(  20) =    12.83924 eV ==== 
     psi = 0.218*[#  26]+0.218*[#  29]+0.075*[#  14]+0.075*[#  15]+0.075*[#  17]
          +0.049*[#  13]+0.049*[#  16]+0.020*[#  18]+0.017*[#  27]+0.017*[#  28]
          +0.017*[#  30]+0.012*[#   2]+0.012*[#   3]+0.012*[#   4]+0.012*[#   6]
          +0.012*[#   7]+0.012*[#   8]+0.010*[#   1]+0.010*[#   5]+0.002*[#  32]
          +0.002*[#  33]+0.002*[#  34]
    |psi|^2 = 0.930
==== e(  21) =    13.01470 eV ==== 
     psi = 0.163*[#  14]+0.163*[#  15]+0.163*[#  17]+0.119*[#  26]+0.119*[#  29]
          +0.058*[#  13]+0.058*[#  16]+0.018*[#  27]+0.018*[#  28]+0.018*[#  30]
          +0.015*[#   2]+0.015*[#   3]+0.015*[#   4]+0.015*[#   6]+0.015*[#   7]
          +0.015*[#   8]+0.002*[#  19]+0.002*[#  20]+0.002*[#  21]+0.001*[#  32]
          +0.001*[#  33]+0.001*[#  34]
    |psi|^2 = 0.995
==== e(  22) =    13.33594 eV ==== 
     psi = 0.246*[#  14]+0.246*[#  15]+0.246*[#  17]+0.038*[#  27]+0.038*[#  28]
          +0.038*[#  30]+0.018*[#  26]+0.018*[#  29]+0.015*[#  18]+0.012*[#   2]
          +0.012*[#   3]+0.012*[#   4]+0.012*[#   6]+0.012*[#   7]+0.012*[#   8]
          +0.007*[#   1]+0.007*[#   5]+0.002*[#  32]+0.002*[#  33]+0.002*[#  34]
          +0.002*[#  13]+0.002*[#  16]
    |psi|^2 = 1.000
==== e(  23) =    13.61169 eV ==== 
     psi = 0.248*[#  14]+0.248*[#  15]+0.248*[#  17]+0.019*[#   2]+0.019*[#   3]
          +0.019*[#   4]+0.019*[#   6]+0.019*[#   7]+0.019*[#   8]+0.019*[#  26]
          +0.019*[#  29]+0.002*[#  27]+0.002*[#  28]+0.002*[#  30]
    |psi|^2 = 0.912
==== e(  24) =    13.62800 eV ==== 
     psi = 0.121*[#  14]+0.121*[#  15]+0.121*[#  17]+0.104*[#  26]+0.104*[#  29]
          +0.042*[#   2]+0.042*[#   3]+0.042*[#   4]+0.042*[#   6]+0.042*[#   7]
          +0.042*[#   8]+0.027*[#  27]+0.027*[#  28]+0.027*[#  30]+0.025*[#  13]
          +0.025*[#  16]+0.008*[#  31]+0.001*[#   1]+0.001*[#   5]+0.001*[#  19]
          +0.001*[#  20]+0.001*[#  21]
    |psi|^2 = 0.972
==== e(  25) =    15.08708 eV ==== 
     psi = 0.314*[#  13]+0.314*[#  16]+0.035*[#   2]+0.035*[#   3]+0.035*[#   4]
          +0.035*[#   6]+0.035*[#   7]+0.035*[#   8]+0.034*[#  26]+0.034*[#  29]
          +0.032*[#  31]+0.019*[#   1]+0.019*[#   5]+0.006*[#  19]+0.006*[#  20]
          +0.006*[#  21]
    |psi|^2 = 0.997
==== e(  26) =    15.40502 eV ==== 
     psi = 0.334*[#  13]+0.334*[#  16]+0.049*[#   2]+0.049*[#   3]+0.049*[#   4]
          +0.049*[#   6]+0.049*[#   7]+0.049*[#   8]+0.016*[#  26]+0.016*[#  29]
          +0.005*[#  32]+0.005*[#  33]+0.005*[#  34]+0.003*[#   1]+0.003*[#   5]
          +0.002*[#  14]+0.002*[#  15]+0.002*[#  17]+0.002*[#  18]+0.001*[#  19]
          +0.001*[#  20]+0.001*[#  21]
    |psi|^2 = 1.024
==== e(  27) =    19.58717 eV ==== 
     psi = 0.290*[#  31]+0.088*[#   1]+0.088*[#   5]+0.052*[#  19]+0.052*[#  20]
          +0.052*[#  21]+0.029*[#   2]+0.029*[#   3]+0.029*[#   4]+0.029*[#   6]
          +0.029*[#   7]+0.029*[#   8]+0.016*[#  13]+0.016*[#  16]+0.007*[#  32]
          +0.007*[#  33]+0.007*[#  34]
    |psi|^2 = 0.852
==== e(  28) =    19.63579 eV ==== 
     psi = 0.293*[#  18]+0.093*[#   1]+0.093*[#   5]+0.054*[#  32]+0.054*[#  33]
          +0.054*[#  34]+0.029*[#   2]+0.029*[#   3]+0.029*[#   4]+0.029*[#   6]
          +0.029*[#   7]+0.029*[#   8]+0.007*[#  19]+0.007*[#  20]+0.007*[#  21]
          +0.006*[#  26]+0.006*[#  29]
    |psi|^2 = 0.852
==== e(  29) =    26.65714 eV ==== 
     psi = 0.153*[#  31]+0.121*[#  19]+0.121*[#  20]+0.121*[#  21]+0.025*[#  32]
          +0.025*[#  33]+0.025*[#  34]+0.010*[#   2]+0.010*[#   3]+0.010*[#   4]
          +0.010*[#   6]+0.010*[#   7]+0.010*[#   8]+0.005*[#  27]+0.005*[#  28]
          +0.005*[#  30]+0.003*[#   1]+0.003*[#   5]+0.003*[#  22]+0.002*[#  14]
          +0.002*[#  15]+0.002*[#  17]
    |psi|^2 = 0.678
==== e(  30) =    26.74492 eV ==== 
     psi = 0.157*[#  18]+0.121*[#  32]+0.121*[#  33]+0.121*[#  34]+0.025*[#  19]
          +0.025*[#  20]+0.025*[#  21]+0.009*[#   2]+0.009*[#   3]+0.009*[#   4]
          +0.009*[#   6]+0.009*[#   7]+0.009*[#   8]+0.007*[#  14]+0.007*[#  15]
          +0.007*[#  17]+0.003*[#   9]+0.003*[#   1]+0.003*[#   5]+0.001*[#  27]
          +0.001*[#  28]+0.001*[#  30]
    |psi|^2 = 0.687

 k =  -0.2500000000 -0.2500000000 -0.2500000000
==== e(   1) =   -89.99573 eV ==== 
     psi = 0.981*[#  22]+0.005*[#  19]+0.005*[#  20]+0.005*[#  21]
    |psi|^2 = 1.000
==== e(   2) =   -88.13023 eV ==== 
     psi = 0.981*[#   9]+0.003*[#  32]+0.003*[#  33]+0.003*[#  34]+0.002*[#  19]
          +0.002*[#  20]+0.002*[#  21]
    |psi|^2 = 1.000
==== e(   3) =   -50.39978 eV ==== 
     psi = 0.222*[#  23]+0.222*[#  24]+0.222*[#  25]+0.002*[#  32]+0.002*[#  33]
          +0.002*[#  34]
    |psi|^2 = 0.673
==== e(   4) =   -50.36813 eV ==== 
     psi = 0.224*[#  23]+0.224*[#  24]+0.224*[#  25]+0.002*[#  32]+0.002*[#  33]
          +0.002*[#  34]
    |psi|^2 = 0.679
==== e(   5) =   -50.36813 eV ==== 
     psi = 0.333*[#  23]+0.333*[#  24]+0.333*[#  25]
    |psi|^2 = 1.000
==== e(   6) =   -48.58679 eV ==== 
     psi = 0.222*[#  10]+0.222*[#  11]+0.222*[#  12]+0.014*[#  23]+0.014*[#  24]
          +0.014*[#  25]
    |psi|^2 = 0.709
==== e(   7) =   -48.56709 eV ==== 
     psi = 0.237*[#  10]+0.237*[#  11]+0.237*[#  12]
    |psi|^2 = 0.711
==== e(   8) =   -48.56709 eV ==== 
     psi = 0.429*[#  10]+0.429*[#  11]+0.429*[#  12]
    |psi|^2 = 1.289
==== e(   9) =    -5.29788 eV ==== 
     psi = 0.340*[#   1]+0.340*[#   5]+0.118*[#  31]+0.064*[#  19]+0.064*[#  20]
          +0.064*[#  21]+0.004*[#  22]
    |psi|^2 = 1.000
==== e(  10) =    -5.29262 eV ==== 
     psi = 0.341*[#   1]+0.341*[#   5]+0.117*[#  18]+0.043*[#  32]+0.043*[#  33]
          +0.043*[#  34]+0.021*[#  19]+0.021*[#  20]+0.021*[#  21]+0.004*[#   9]
          
    |psi|^2 = 1.000
==== e(  11) =     8.24070 eV ==== 
     psi = 0.157*[#  31]+0.071*[#   2]+0.071*[#   3]+0.071*[#   4]+0.071*[#   6]
          +0.071*[#   7]+0.071*[#   8]+0.051*[#  27]+0.051*[#  28]+0.051*[#  30]
          +0.023*[#   1]+0.023*[#   5]+0.021*[#  32]+0.021*[#  33]+0.021*[#  34]
          +0.002*[#  22]
    |psi|^2 = 0.850
==== e(  12) =     8.29339 eV ==== 
     psi = 0.165*[#  18]+0.075*[#   2]+0.075*[#   3]+0.075*[#   4]+0.075*[#   6]
          +0.075*[#   7]+0.075*[#   8]+0.037*[#  14]+0.037*[#  15]+0.037*[#  17]
          +0.023*[#   1]+0.023*[#   5]+0.022*[#  32]+0.022*[#  33]+0.022*[#  34]
          +0.002*[#   9]
    |psi|^2 = 0.838
==== e(  13) =     9.36965 eV ==== 
     psi = 0.221*[#  26]+0.221*[#  29]+0.084*[#   2]+0.084*[#   3]+0.084*[#   4]
          +0.084*[#   6]+0.084*[#   7]+0.084*[#   8]+0.015*[#  27]+0.015*[#  28]
          +0.015*[#  30]+0.002*[#  19]+0.002*[#  20]+0.002*[#  21]
    |psi|^2 = 0.997
==== e(  14) =     9.36965 eV ==== 
     psi = 0.221*[#  26]+0.221*[#  29]+0.069*[#   2]+0.069*[#   3]+0.069*[#   4]
          +0.069*[#   6]+0.069*[#   7]+0.069*[#   8]+0.015*[#  27]+0.015*[#  28]
          +0.015*[#  30]+0.002*[#  19]+0.002*[#  20]+0.002*[#  21]
    |psi|^2 = 0.908
==== e(  15) =    10.03773 eV ==== 
     psi = 0.119*[#  13]+0.119*[#  16]+0.095*[#   2]+0.095*[#   3]+0.095*[#   4]
          +0.095*[#   6]+0.095*[#   7]+0.095*[#   8]+0.017*[#  14]+0.017*[#  15]
          +0.017*[#  17]+0.001*[#  19]+0.001*[#  20]+0.001*[#  21]+0.001*[#  32]
          +0.001*[#  33]+0.001*[#  34]
    |psi|^2 = 0.864
==== e(  16) =    10.03773 eV ==== 
     psi = 0.130*[#   2]+0.130*[#   3]+0.130*[#   4]+0.130*[#   6]+0.130*[#   7]
          +0.130*[#   8]+0.119*[#  13]+0.119*[#  16]+0.017*[#  14]+0.017*[#  15]
          +0.017*[#  17]+0.003*[#  32]+0.003*[#  33]+0.003*[#  34]
    |psi|^2 = 1.084
==== e(  17) =    12.03520 eV ==== 
     psi = 0.296*[#  27]+0.296*[#  28]+0.296*[#  30]+0.053*[#  26]+0.053*[#  29]
          +0.001*[#  19]+0.001*[#  20]+0.001*[#  21]
    |psi|^2 = 0.996
==== e(  18) =    12.03520 eV ==== 
     psi = 0.296*[#  27]+0.296*[#  28]+0.296*[#  30]+0.053*[#  26]+0.053*[#  29]
          +0.001*[#  19]+0.001*[#  20]+0.001*[#  21]
    |psi|^2 = 0.995
==== e(  19) =    12.41264 eV ==== 
     psi = 0.275*[#  27]+0.275*[#  28]+0.275*[#  30]+0.023*[#  31]+0.013*[#   2]
          +0.013*[#   3]+0.013*[#   4]+0.013*[#   6]+0.013*[#   7]+0.013*[#   8]
          +0.009*[#   1]+0.009*[#   5]+0.003*[#  19]+0.003*[#  20]+0.003*[#  21]
          
    |psi|^2 = 0.954
==== e(  20) =    13.13998 eV ==== 
     psi = 0.307*[#  14]+0.307*[#  15]+0.307*[#  17]+0.026*[#  13]+0.026*[#  16]
          +0.001*[#   2]+0.001*[#   3]+0.001*[#   4]+0.001*[#   6]+0.001*[#   7]
          +0.001*[#   8]
    |psi|^2 = 0.981
==== e(  21) =    13.13998 eV ==== 
     psi = 0.307*[#  14]+0.307*[#  15]+0.307*[#  17]+0.026*[#  13]+0.026*[#  16]
          +0.003*[#   2]+0.003*[#   3]+0.003*[#   4]+0.003*[#   6]+0.003*[#   7]
          +0.003*[#   8]
    |psi|^2 = 0.993
==== e(  22) =    13.27321 eV ==== 
     psi = 0.286*[#  14]+0.286*[#  15]+0.286*[#  17]+0.015*[#  18]+0.010*[#   2]
          +0.010*[#   3]+0.010*[#   4]+0.010*[#   6]+0.010*[#   7]+0.010*[#   8]
          +0.009*[#   1]+0.009*[#   5]+0.003*[#  32]+0.003*[#  33]+0.003*[#  34]
          
    |psi|^2 = 0.962
==== e(  23) =    13.78784 eV ==== 
     psi = 0.225*[#  26]+0.225*[#  29]+0.084*[#   2]+0.084*[#   3]+0.084*[#   4]
          +0.084*[#   6]+0.084*[#   7]+0.084*[#   8]+0.020*[#  27]+0.020*[#  28]
          +0.020*[#  30]+0.004*[#  19]+0.004*[#  20]+0.004*[#  21]+0.002*[#  32]
          +0.002*[#  33]+0.002*[#  34]
    |psi|^2 = 1.031
==== e(  24) =    13.78784 eV ==== 
     psi = 0.225*[#  26]+0.225*[#  29]+0.031*[#   2]+0.031*[#   3]+0.031*[#   4]
          +0.031*[#   6]+0.031*[#   7]+0.031*[#   8]+0.020*[#  27]+0.020*[#  28]
          +0.020*[#  30]+0.002*[#  32]+0.002*[#  33]+0.002*[#  34]+0.001*[#  19]
          +0.001*[#  20]+0.001*[#  21]
    |psi|^2 = 0.706
==== e(  25) =    15.28410 eV ==== 
     psi = 0.351*[#  13]+0.351*[#  16]+0.044*[#   2]+0.044*[#   3]+0.044*[#   4]
          +0.044*[#   6]+0.044*[#   7]+0.044*[#   8]+0.006*[#  14]+0.006*[#  15]
          +0.006*[#  17]+0.005*[#  32]+0.005*[#  33]+0.005*[#  34]
    |psi|^2 = 0.997
==== e(  26) =    15.28410 eV ==== 
     psi = 0.351*[#  13]+0.351*[#  16]+0.051*[#   2]+0.051*[#   3]+0.051*[#   4]
          +0.051*[#   6]+0.051*[#   7]+0.051*[#   8]+0.006*[#  14]+0.006*[#  15]
          +0.006*[#  17]+0.005*[#  32]+0.005*[#  33]+0.005*[#  34]
    |psi|^2 = 1.043
==== e(  27) =    18.68654 eV ==== 
     psi = 0.301*[#  31]+0.115*[#   1]+0.115*[#   5]+0.065*[#  19]+0.065*[#  20]
          +0.065*[#  21]+0.018*[#   2]+0.018*[#   3]+0.018*[#   4]+0.018*[#   6]
          +0.018*[#   7]+0.018*[#   8]+0.002*[#  27]+0.002*[#  28]+0.002*[#  30]
          +0.001*[#  22]
    |psi|^2 = 0.841
==== e(  28) =    18.81342 eV ==== 
     psi = 0.292*[#  18]+0.116*[#   1]+0.116*[#   5]+0.068*[#  32]+0.068*[#  33]
          +0.068*[#  34]+0.040*[#   2]+0.040*[#   3]+0.040*[#   4]+0.040*[#   6]
          +0.040*[#   7]+0.040*[#   8]+0.003*[#  14]+0.003*[#  15]+0.003*[#  17]
          +0.001*[#   9]
    |psi|^2 = 0.979
==== e(  29) =    26.56960 eV ==== 
     psi = 0.286*[#  31]+0.104*[#  19]+0.104*[#  20]+0.104*[#  21]+0.009*[#   2]
          +0.009*[#   3]+0.009*[#   4]+0.009*[#   6]+0.009*[#   7]+0.009*[#   8]
          +0.007*[#  22]+0.005*[#   1]+0.005*[#   5]+0.005*[#  27]+0.005*[#  28]
          +0.005*[#  30]
    |psi|^2 = 0.687
==== e(  30) =    26.70015 eV ==== 
     psi = 0.292*[#  18]+0.104*[#  32]+0.104*[#  33]+0.104*[#  34]+0.009*[#   2]
          +0.009*[#   3]+0.009*[#   4]+0.009*[#   6]+0.009*[#   7]+0.009*[#   8]
          +0.007*[#  14]+0.007*[#  15]+0.007*[#  17]+0.007*[#   9]+0.005*[#   1]
          +0.005*[#   5]
    |psi|^2 = 0.699

Lowdin Charges: 

     Atom #   1: total charge =   5.7507, s =  1.6420, p =  4.1087, d =  0.0000, 
                 spin up      =   2.8750, s =  0.8210, 
                 spin up      =   2.8750, p =  2.0540, pz=  0.6847, px=  0.6847, py=  0.6847, 
                 spin up      =   2.8750, d =  0.0000, dz2=  0.0000, dxz=  0.0000, dyz=  0.0000, dx2-y2=  0.0000, dxy=  0.0000, 
                 spin down    =   2.8756, s =  0.8210, 
                 spin down    =   2.8756, p =  2.0546, pz=  0.6849, px=  0.6849, py=  0.6849, 
                 spin down    =   2.8756, d =  0.0000, dz2=  0.0000, dxz=  0.0000, dyz=  0.0000, dx2-y2=  0.0000, dxy=  0.0000, 
                 polarization =  -0.0006, s =  0.0000, p = -0.0006, d =  0.0000, 
     Atom #   2: total charge =   5.7507, s =  1.6420, p =  4.1087, d =  0.0000, 
                 spin up      =   2.8750, s =  0.8210, 
                 spin up      =   2.8750, p =  2.0540, pz=  0.6847, px=  0.6847, py=  0.6847, 
                 spin up      =   2.8750, d =  0.0000, dz2=  0.0000, dxz=  0.0000, dyz=  0.0000, dx2-y2=  0.0000, dxy=  0.0000, 
                 spin down    =   2.8756, s =  0.8210, 
                 spin down    =   2.8756, p =  2.0546, pz=  0.6849, px=  0.6849, py=  0.6849, 
                 spin down    =   2.8756, d =  0.0000, dz2=  0.0000, dxz=  0.0000, dyz=  0.0000, dx2-y2=  0.0000, dxy=  0.0000, 
                 polarization =  -0.0006, s =  0.0000, p = -0.0006, d =  0.0000, 
     Atom #   3: total charge =  16.9607, s =  2.3719, p =  6.1982, d =  8.3905, 
                 spin up      =   9.0120, s =  1.1804, 
                 spin up      =   9.0120, p =  2.9611, pz=  0.9870, px=  0.9870, py=  0.9870, 
                 spin up      =   9.0120, d =  4.8705, dz2=  0.9545, dxz=  0.9872, dyz=  0.9872, dx2-y2=  0.9545, dxy=  0.9872, 
                 spin down    =   7.9487, s =  1.1916, 
                 spin down    =   7.9487, p =  3.2371, pz=  1.0790, px=  1.0790, py=  1.0790, 
                 spin down    =   7.9487, d =  3.5200, dz2=  0.2924, dxz=  0.9784, dyz=  0.9784, dx2-y2=  0.2924, dxy=  0.9784, 
                 polarization =   1.0633, s = -0.0112, p = -0.2761, d =  1.3505, 
     Atom #   4: total charge =  16.9596, s =  2.3719, p =  6.1971, d =  8.3905, 
                 spin up      =   7.9487, s =  1.1916, 
                 spin up      =   7.9487, p =  3.2371, pz=  1.0790, px=  1.0790, py=  1.0790, 
                 spin up      =   7.9487, d =  3.5200, dz2=  0.2924, dxz=  0.9784, dyz=  0.9784, dx2-y2=  0.2924, dxy=  0.9784, 
                 spin down    =   9.0109, s =  1.1804, 
                 spin down    =   9.0109, p =  2.9600, pz=  0.9867, px=  0.9867, py=  0.9867, 
                 spin down    =   9.0109, d =  4.8705, dz2=  0.9545, dxz=  0.9872, dyz=  0.9872, dx2-y2=  0.9545, dxy=  0.9872, 
                 polarization =  -1.0622, s =  0.0112, p =  0.2772, d = -1.3505, 
     Spilling Parameter:   0.0537

     PROJWFC      :      8.93s CPU     11.57s WALL


   This run was terminated on:  20: 0:43   1Feb2022            

=------------------------------------------------------------------------------=
   JOB DONE.
=------------------------------------------------------------------------------=
