ANIMSTEPS    6
CRYSTAL
PRIMVEC
   -2.850281255    0.000000000    2.850281255
    0.000000000    2.850281255    2.850281255
   -2.850281255    2.850281255    0.000000000
PRIMCOORD    1
      2   1
   Na     0.00000   0.00000   0.00000  -0.00066  -0.00855   0.07019
   Cl    -2.85028   2.85028   2.85028  -0.00066  -0.00855   0.07019
PRIMCOORD    2
      2   1
   Na     0.00000   0.00000   0.00000  -0.01212  -0.06914  -0.00853
   Cl    -2.85028   2.85028   2.85028  -0.01212  -0.06914  -0.00853
PRIMCOORD    3
      2   1
   Na     0.00000   0.00000   0.00000   0.06966  -0.01211  -0.00082
   Cl    -2.85028   2.85028   2.85028   0.06966  -0.01211  -0.00082
PRIMCOORD    4
      2   1
   Na     0.00000   0.00000   0.00000   0.00000   0.08390  -0.00000
   Cl    -2.85028   2.85028   2.85028   0.00000  -0.05441  -0.00000
PRIMCOORD    5
      2   1
   Na     0.00000   0.00000   0.00000   0.00000  -0.00000  -0.08390
   Cl    -2.85028   2.85028   2.85028  -0.00000  -0.00000   0.05441
PRIMCOORD    6
      2   1
   Na     0.00000   0.00000   0.00000  -0.08390  -0.00000   0.00000
   Cl    -2.85028   2.85028   2.85028   0.05441   0.00000   0.00000
