 CRYSTAL
 PRIMVEC
   -2.796966148    0.000000000    2.796966148
    0.000000000    2.796966148    2.796966148
   -2.796966148    2.796966148    0.000000000
 PRIMCOORD
           2           1
Na        0.000000000    0.000000000    0.000000000
Cl       -2.796966148    2.796966148    2.796966148
BEGIN_BLOCK_DATAGRID_3D
3D_PWSCF
BEGIN_DATAGRID_3D_UNKNOWN
          61          61          61
  0.000000  0.000000  0.000000
   -2.796966    0.000000    2.796966
    0.000000    2.796966    2.796966
   -2.796966    2.796966    0.000000
  0.544055E+01  0.522009E+01  0.460926E+01  0.374186E+01  0.279148E+01  0.191766E+01
  0.122244E+01  0.735471E+00  0.428930E+00  0.250226E+00  0.148775E+00  0.901057E-01
  0.553507E-01  0.343254E-01  0.218827E-01  0.145600E-01  0.102345E-01  0.765554E-02
  0.613130E-02  0.526448E-02  0.480887E-02  0.460481E-02  0.454060E-02  0.456327E-02
  0.461865E-02  0.469205E-02  0.476371E-02  0.483255E-02  0.488336E-02  0.492180E-02
  0.492252E-02  0.492180E-02  0.488336E-02  0.483255E-02  0.476371E-02  0.469205E-02
  0.461865E-02  0.456327E-02  0.454060E-02  0.460481E-02  0.480887E-02  0.526448E-02
  0.613130E-02  0.765554E-02  0.102345E-01  0.145600E-01  0.218827E-01  0.343254E-01
  0.553507E-01  0.901057E-01  0.148775E+00  0.250226E+00  0.428930E+00  0.735471E+00
  0.122244E+01  0.191766E+01  0.279148E+01  0.374186E+01  0.460926E+01  0.522009E+01
  0.544055E+01  0.522009E+01  0.480477E+01  0.406784E+01  0.316514E+01  0.226494E+01
  0.149750E+01  0.926116E+00  0.547773E+00  0.319362E+00  0.188554E+00  0.113489E+00
  0.694264E-01  0.428993E-01  0.269346E-01  0.175629E-01  0.120093E-01  0.872907E-02
  0.675985E-02  0.562841E-02  0.499439E-02  0.469335E-02  0.457002E-02  0.456406E-02
  0.460413E-02  0.467536E-02  0.474729E-02  0.482253E-02  0.488046E-02  0.492861E-02
  0.494942E-02  0.494942E-02  0.492861E-02  0.488046E-02  0.482253E-02  0.474729E-02
  0.467536E-02  0.460413E-02  0.456406E-02  0.457002E-02  0.469335E-02  0.499439E-02
  0.562841E-02  0.675985E-02  0.872907E-02  0.120093E-01  0.175629E-01  0.269346E-01
  0.428993E-01  0.694264E-01  0.113489E+00  0.188554E+00  0.319362E+00  0.547773E+00
  0.926116E+00  0.149750E+01  0.226494E+01  0.316514E+01  0.406784E+01  0.480477E+01
  0.522009E+01  0.522009E+01  0.460926E+01  0.406784E+01  0.330048E+01  0.246223E+01
  0.169389E+01  0.108420E+01  0.657360E+00  0.387812E+00  0.229312E+00  0.137923E+00
  0.842935E-01  0.521373E-01  0.325442E-01  0.209176E-01  0.140313E-01  0.995132E-02
  0.750746E-02  0.607007E-02  0.525225E-02  0.482624E-02  0.464201E-02  0.459531E-02
  0.462561E-02  0.468738E-02  0.476955E-02  0.484460E-02  0.491748E-02  0.496913E-02
  0.500921E-02  0.501850E-02  0.500921E-02  0.496913E-02  0.491748E-02  0.484460E-02
  0.476955E-02  0.468738E-02  0.462561E-02  0.459531E-02  0.464201E-02  0.482624E-02
  0.525225E-02  0.607007E-02  0.750746E-02  0.995132E-02  0.140313E-01  0.209176E-01
  0.325442E-01  0.521373E-01  0.842935E-01  0.137923E+00  0.229312E+00  0.387812E+00
  0.657360E+00  0.108420E+01  0.169389E+01  0.246223E+01  0.330048E+01  0.406784E+01
  0.460926E+01  0.480477E+01  0.460926E+01  0.374186E+01  0.316514E+01  0.246223E+01
  0.176527E+01  0.117432E+01  0.735480E+00  0.443834E+00  0.265558E+00  0.160738E+00
  0.986643E-01  0.612894E-01  0.383291E-01  0.244447E-01  0.162035E-01  0.112760E-01
  0.833755E-02  0.657264E-02  0.556244E-02  0.500462E-02  0.475253E-02  0.466154E-02
  0.467876E-02  0.473486E-02  0.481911E-02  0.490257E-02  0.498333E-02  0.504981E-02
  0.510021E-02  0.512431E-02  0.512431E-02  0.510021E-02  0.504981E-02  0.498333E-02
  0.490257E-02  0.481911E-02  0.473486E-02  0.467876E-02  0.466154E-02  0.475253E-02
  0.500462E-02  0.556244E-02  0.657264E-02  0.833755E-02  0.112760E-01  0.162035E-01
  0.244447E-01  0.383291E-01  0.612894E-01  0.986643E-01  0.160738E+00  0.265558E+00
  0.443834E+00  0.735480E+00  0.117432E+01  0.176527E+01  0.246223E+01  0.316514E+01
  0.374186E+01  0.406784E+01  0.406784E+01  0.374186E+01  0.279148E+01  0.226494E+01
  0.169389E+01  0.117432E+01  0.763877E+00  0.475583E+00  0.290881E+00  0.178653E+00
  0.110838E+00  0.694422E-01  0.437529E-01  0.278860E-01  0.183697E-01  0.126337E-01
  0.920107E-02  0.711768E-02  0.590498E-02  0.522035E-02  0.488747E-02  0.475923E-02
  0.475327E-02  0.480965E-02  0.489330E-02  0.498752E-02  0.507835E-02  0.516177E-02
  0.522303E-02  0.526448E-02  0.527673E-02  0.526448E-02  0.522303E-02  0.516177E-02
  0.507835E-02  0.498752E-02  0.489330E-02  0.480965E-02  0.475327E-02  0.475923E-02
  0.488747E-02  0.522035E-02  0.590498E-02  0.711768E-02  0.920107E-02  0.126337E-01
  0.183697E-01  0.278860E-01  0.437529E-01  0.694422E-01  0.110838E+00  0.178653E+00
  0.290881E+00  0.475583E+00  0.763877E+00  0.117432E+01  0.169389E+01  0.226494E+01
  0.279148E+01  0.316514E+01  0.330048E+01  0.316514E+01  0.279148E+01  0.191766E+01
  0.149750E+01  0.108420E+01  0.735480E+00  0.475583E+00  0.300001E+00  0.188565E+00
  0.119061E+00  0.756174E-01  0.482067E-01  0.309111E-01  0.203535E-01  0.139273E-01
  0.100431E-01  0.767425E-02  0.626289E-02  0.545895E-02  0.504266E-02  0.487253E-02
  0.484466E-02  0.489773E-02  0.498543E-02  0.509454E-02  0.519743E-02  0.529678E-02
  0.537596E-02  0.542992E-02  0.546093E-02  0.546093E-02  0.542992E-02  0.537596E-02
  0.529678E-02  0.519743E-02  0.509454E-02  0.498543E-02  0.489773E-02  0.484466E-02
  0.487253E-02  0.504266E-02  0.545895E-02  0.626289E-02  0.767425E-02  0.100431E-01
  0.139273E-01  0.203535E-01  0.309111E-01  0.482067E-01  0.756174E-01  0.119061E+00
  0.188565E+00  0.300001E+00  0.475583E+00  0.735480E+00  0.108420E+01  0.149750E+01
  0.191766E+01  0.226494E+01  0.246223E+01  0.246223E+01  0.226494E+01  0.191766E+01
  0.122244E+01  0.926116E+00  0.657360E+00  0.443834E+00  0.290881E+00  0.188565E+00
  0.121971E+00  0.789590E-01  0.511428E-01  0.331721E-01  0.219599E-01  0.150412E-01
  0.107937E-01  0.818988E-02  0.660980E-02  0.569879E-02  0.520802E-02  0.499908E-02
  0.494749E-02  0.500212E-02  0.509518E-02  0.521673E-02  0.533631E-02  0.544969E-02
  0.554689E-02  0.562377E-02  0.566896E-02  0.568734E-02  0.566896E-02  0.562377E-02
  0.554689E-02  0.544969E-02  0.533631E-02  0.521673E-02  0.509518E-02  0.500212E-02
  0.494749E-02  0.499908E-02  0.520802E-02  0.569879E-02  0.660980E-02  0.818988E-02
  0.107937E-01  0.150412E-01  0.219599E-01  0.331721E-01  0.511428E-01  0.789590E-01
  0.121971E+00  0.188565E+00  0.290881E+00  0.443834E+00  0.657360E+00  0.926116E+00
  0.122244E+01  0.149750E+01  0.169389E+01  0.176527E+01  0.169389E+01  0.149750E+01
  0.122244E+01  0.735471E+00  0.547773E+00  0.387812E+00  0.265558E+00  0.178653E+00
  0.119061E+00  0.789590E-01  0.521695E-01  0.343867E-01  0.230087E-01  0.158601E-01
  0.113930E-01  0.862870E-02  0.691870E-02  0.592406E-02  0.536974E-02  0.512669E-02
  0.505606E-02  0.510674E-02  0.520841E-02  0.534365E-02  0.548019E-02  0.561652E-02
  0.573270E-02  0.582869E-02  0.589713E-02  0.593199E-02  0.593199E-02  0.589713E-02
  0.582869E-02  0.573270E-02  0.561652E-02  0.548019E-02  0.534365E-02  0.520841E-02
  0.510674E-02  0.505606E-02  0.512669E-02  0.536974E-02  0.592406E-02  0.691870E-02
  0.862870E-02  0.113930E-01  0.158601E-01  0.230087E-01  0.343867E-01  0.521695E-01
  0.789590E-01  0.119061E+00  0.178653E+00  0.265558E+00  0.387812E+00  0.547773E+00
  0.735471E+00  0.926116E+00  0.108420E+01  0.117432E+01  0.117432E+01  0.108420E+01
  0.926116E+00  0.735471E+00  0.428930E+00  0.319362E+00  0.229312E+00  0.160738E+00
  0.110838E+00  0.756174E-01  0.511428E-01  0.343867E-01  0.233742E-01  0.162947E-01
  0.117798E-01  0.894720E-02  0.716399E-02  0.610837E-02  0.551343E-02  0.524218E-02
  0.516282E-02  0.521335E-02  0.532609E-02  0.547004E-02  0.563216E-02  0.578379E-02
  0.593015E-02  0.604293E-02  0.613653E-02  0.618916E-02  0.621311E-02  0.618916E-02
  0.613653E-02  0.604293E-02  0.593015E-02  0.578379E-02  0.563216E-02  0.547004E-02
  0.532609E-02  0.521335E-02  0.516282E-02  0.524218E-02  0.551343E-02  0.610837E-02
  0.716399E-02  0.894720E-02  0.117798E-01  0.162947E-01  0.233742E-01  0.343867E-01
  0.511428E-01  0.756174E-01  0.110838E+00  0.160738E+00  0.229312E+00  0.319362E+00
  0.428930E+00  0.547773E+00  0.657360E+00  0.735480E+00  0.763877E+00  0.735480E+00
  0.657360E+00  0.547773E+00  0.428930E+00  0.250226E+00  0.188554E+00  0.137923E+00
  0.986643E-01  0.694422E-01  0.482067E-01  0.331721E-01  0.230087E-01  0.162947E-01
  0.119149E-01  0.911218E-02  0.732174E-02  0.624462E-02  0.562947E-02  0.533922E-02
  0.525838E-02  0.530372E-02  0.543504E-02  0.559104E-02  0.577526E-02  0.595048E-02
  0.611970E-02  0.625990E-02  0.637847E-02  0.645618E-02  0.649793E-02  0.649793E-02
  0.645618E-02  0.637847E-02  0.625990E-02  0.611970E-02  0.595048E-02  0.577526E-02
  0.559104E-02  0.543504E-02  0.530372E-02  0.525838E-02  0.533922E-02  0.562947E-02
  0.624462E-02  0.732174E-02  0.911218E-02  0.119149E-01  0.162947E-01  0.230087E-01
  0.331721E-01  0.482067E-01  0.694422E-01  0.986643E-01  0.137923E+00  0.188554E+00
  0.250226E+00  0.319362E+00  0.387812E+00  0.443834E+00  0.475583E+00  0.475583E+00
  0.443834E+00  0.387812E+00  0.319362E+00  0.250226E+00  0.148775E+00  0.113489E+00
  0.842935E-01  0.612894E-01  0.437529E-01  0.309111E-01  0.219599E-01  0.158601E-01
  0.117798E-01  0.911218E-02  0.737558E-02  0.631584E-02  0.570420E-02  0.540855E-02
  0.533012E-02  0.538308E-02  0.552100E-02  0.570038E-02  0.590224E-02  0.610386E-02
  0.629774E-02  0.646880E-02  0.661057E-02  0.672003E-02  0.678280E-02  0.680724E-02
  0.678280E-02  0.672003E-02  0.661057E-02  0.646880E-02  0.629774E-02  0.610386E-02
  0.590224E-02  0.570038E-02  0.552100E-02  0.538308E-02  0.533012E-02  0.540855E-02
  0.570420E-02  0.631584E-02  0.737558E-02  0.911218E-02  0.117798E-01  0.158601E-01
  0.219599E-01  0.309111E-01  0.437529E-01  0.612894E-01  0.842935E-01  0.113489E+00
  0.148775E+00  0.188554E+00  0.229312E+00  0.265558E+00  0.290881E+00  0.300001E+00
  0.290881E+00  0.265558E+00  0.229312E+00  0.188554E+00  0.148775E+00  0.901057E-01
  0.694264E-01  0.521373E-01  0.383291E-01  0.278860E-01  0.203535E-01  0.150412E-01
  0.113930E-01  0.894720E-02  0.732174E-02  0.631584E-02  0.572571E-02  0.544644E-02
  0.537527E-02  0.543686E-02  0.559242E-02  0.578779E-02  0.601366E-02  0.623809E-02
  0.645815E-02  0.665662E-02  0.682954E-02  0.696492E-02  0.705925E-02  0.710744E-02
  0.710744E-02  0.705925E-02  0.696492E-02  0.682954E-02  0.665662E-02  0.645815E-02
  0.623809E-02  0.601366E-02  0.578779E-02  0.559242E-02  0.543686E-02  0.537527E-02
  0.544644E-02  0.572571E-02  0.631584E-02  0.732174E-02  0.894720E-02  0.113930E-01
  0.150412E-01  0.203535E-01  0.278860E-01  0.383291E-01  0.521373E-01  0.694264E-01
  0.901057E-01  0.113489E+00  0.137923E+00  0.160738E+00  0.178653E+00  0.188565E+00
  0.188565E+00  0.178653E+00  0.160738E+00  0.137923E+00  0.113489E+00  0.901057E-01
  0.553507E-01  0.428993E-01  0.325442E-01  0.244447E-01  0.183697E-01  0.139273E-01
  0.107937E-01  0.862870E-02  0.716399E-02  0.624462E-02  0.570420E-02  0.544644E-02
  0.539835E-02  0.546719E-02  0.563542E-02  0.584678E-02  0.609358E-02  0.634387E-02
  0.659252E-02  0.682103E-02  0.702252E-02  0.719259E-02  0.731244E-02  0.739198E-02
  0.741414E-02  0.739198E-02  0.731244E-02  0.719259E-02  0.702252E-02  0.682103E-02
  0.659252E-02  0.634387E-02  0.609358E-02  0.584678E-02  0.563542E-02  0.546719E-02
  0.539835E-02  0.544644E-02  0.570420E-02  0.624462E-02  0.716399E-02  0.862870E-02
  0.107937E-01  0.139273E-01  0.183697E-01  0.244447E-01  0.325442E-01  0.428993E-01
  0.553507E-01  0.694264E-01  0.842935E-01  0.986643E-01  0.110838E+00  0.119061E+00
  0.121971E+00  0.119061E+00  0.110838E+00  0.986643E-01  0.842935E-01  0.694264E-01
  0.553507E-01  0.343254E-01  0.269346E-01  0.209176E-01  0.162035E-01  0.126337E-01
  0.100431E-01  0.818988E-02  0.691870E-02  0.610837E-02  0.562947E-02  0.540855E-02
  0.537527E-02  0.546719E-02  0.565196E-02  0.588157E-02  0.614488E-02  0.642196E-02
  0.669202E-02  0.695391E-02  0.718365E-02  0.738582E-02  0.753807E-02  0.764671E-02
  0.770029E-02  0.770029E-02  0.764671E-02  0.753807E-02  0.738582E-02  0.718365E-02
  0.695391E-02  0.669202E-02  0.642196E-02  0.614488E-02  0.588157E-02  0.565196E-02
  0.546719E-02  0.537527E-02  0.540855E-02  0.562947E-02  0.610837E-02  0.691870E-02
  0.818988E-02  0.100431E-01  0.126337E-01  0.162035E-01  0.209176E-01  0.269346E-01
  0.343254E-01  0.428993E-01  0.521373E-01  0.612894E-01  0.694422E-01  0.756174E-01
  0.789590E-01  0.789590E-01  0.756174E-01  0.694422E-01  0.612894E-01  0.521373E-01
  0.428993E-01  0.343254E-01  0.218827E-01  0.175629E-01  0.140313E-01  0.112760E-01
  0.920107E-02  0.767425E-02  0.660980E-02  0.592406E-02  0.551343E-02  0.533922E-02
  0.533012E-02  0.543686E-02  0.563542E-02  0.588157E-02  0.616283E-02  0.645906E-02
  0.675508E-02  0.704093E-02  0.730493E-02  0.753711E-02  0.772396E-02  0.786404E-02
  0.795036E-02  0.797958E-02  0.795036E-02  0.786404E-02  0.772396E-02  0.753711E-02
  0.730493E-02  0.704093E-02  0.675508E-02  0.645906E-02  0.616283E-02  0.588157E-02
  0.563542E-02  0.543686E-02  0.533012E-02  0.533922E-02  0.551343E-02  0.592406E-02
  0.660980E-02  0.767425E-02  0.920107E-02  0.112760E-01  0.140313E-01  0.175629E-01
  0.218827E-01  0.269346E-01  0.325442E-01  0.383291E-01  0.437529E-01  0.482067E-01
  0.511428E-01  0.521695E-01  0.511428E-01  0.482067E-01  0.437529E-01  0.383291E-01
  0.325442E-01  0.269346E-01  0.218827E-01  0.145600E-01  0.120093E-01  0.995132E-02
  0.833755E-02  0.711768E-02  0.626289E-02  0.569879E-02  0.536974E-02  0.524218E-02
  0.525838E-02  0.538308E-02  0.559242E-02  0.584678E-02  0.614488E-02  0.645906E-02
  0.677544E-02  0.709016E-02  0.737900E-02  0.764563E-02  0.786341E-02  0.803802E-02
  0.815487E-02  0.821599E-02  0.821599E-02  0.815487E-02  0.803802E-02  0.786341E-02
  0.764563E-02  0.737900E-02  0.709016E-02  0.677544E-02  0.645906E-02  0.614488E-02
  0.584678E-02  0.559242E-02  0.538308E-02  0.525838E-02  0.524218E-02  0.536974E-02
  0.569879E-02  0.626289E-02  0.711768E-02  0.833755E-02  0.995132E-02  0.120093E-01
  0.145600E-01  0.175629E-01  0.209176E-01  0.244447E-01  0.278860E-01  0.309111E-01
  0.331721E-01  0.343867E-01  0.343867E-01  0.331721E-01  0.309111E-01  0.278860E-01
  0.244447E-01  0.209176E-01  0.175629E-01  0.145600E-01  0.102345E-01  0.872907E-02
  0.750746E-02  0.657264E-02  0.590498E-02  0.545895E-02  0.520802E-02  0.512669E-02
  0.516282E-02  0.530372E-02  0.552100E-02  0.578779E-02  0.609358E-02  0.642196E-02
  0.675508E-02  0.709016E-02  0.740498E-02  0.769637E-02  0.794971E-02  0.815472E-02
  0.830947E-02  0.839979E-02  0.843440E-02  0.839979E-02  0.830947E-02  0.815472E-02
  0.794971E-02  0.769637E-02  0.740498E-02  0.709016E-02  0.675508E-02  0.642196E-02
  0.609358E-02  0.578779E-02  0.552100E-02  0.530372E-02  0.516282E-02  0.512669E-02
  0.520802E-02  0.545895E-02  0.590498E-02  0.657264E-02  0.750746E-02  0.872907E-02
  0.102345E-01  0.120093E-01  0.140313E-01  0.162035E-01  0.183697E-01  0.203535E-01
  0.219599E-01  0.230087E-01  0.233742E-01  0.230087E-01  0.219599E-01  0.203535E-01
  0.183697E-01  0.162035E-01  0.140313E-01  0.120093E-01  0.102345E-01  0.765554E-02
  0.675985E-02  0.607007E-02  0.556244E-02  0.522035E-02  0.504266E-02  0.499908E-02
  0.505606E-02  0.521335E-02  0.543504E-02  0.570038E-02  0.601366E-02  0.634387E-02
  0.669202E-02  0.704093E-02  0.737900E-02  0.769637E-02  0.797826E-02  0.821699E-02
  0.840338E-02  0.852936E-02  0.859355E-02  0.859355E-02  0.852936E-02  0.840338E-02
  0.821699E-02  0.797826E-02  0.769637E-02  0.737900E-02  0.704093E-02  0.669202E-02
  0.634387E-02  0.601366E-02  0.570038E-02  0.543504E-02  0.521335E-02  0.505606E-02
  0.499908E-02  0.504266E-02  0.522035E-02  0.556244E-02  0.607007E-02  0.675985E-02
  0.765554E-02  0.872907E-02  0.995132E-02  0.112760E-01  0.126337E-01  0.139273E-01
  0.150412E-01  0.158601E-01  0.162947E-01  0.162947E-01  0.158601E-01  0.150412E-01
  0.139273E-01  0.126337E-01  0.112760E-01  0.995132E-02  0.872907E-02  0.765554E-02
  0.613130E-02  0.562841E-02  0.525225E-02  0.500462E-02  0.488747E-02  0.487253E-02
  0.494749E-02  0.510674E-02  0.532609E-02  0.559104E-02  0.590224E-02  0.623809E-02
  0.659252E-02  0.695391E-02  0.730493E-02  0.764563E-02  0.794971E-02  0.821699E-02
  0.843520E-02  0.859380E-02  0.869395E-02  0.872510E-02  0.869395E-02  0.859380E-02
  0.843520E-02  0.821699E-02  0.794971E-02  0.764563E-02  0.730493E-02  0.695391E-02
  0.659252E-02  0.623809E-02  0.590224E-02  0.559104E-02  0.532609E-02  0.510674E-02
  0.494749E-02  0.487253E-02  0.488747E-02  0.500462E-02  0.525225E-02  0.562841E-02
  0.613130E-02  0.675985E-02  0.750746E-02  0.833755E-02  0.920107E-02  0.100431E-01
  0.107937E-01  0.113930E-01  0.117798E-01  0.119149E-01  0.117798E-01  0.113930E-01
  0.107937E-01  0.100431E-01  0.920107E-02  0.833755E-02  0.750746E-02  0.675985E-02
  0.613130E-02  0.526448E-02  0.499439E-02  0.482624E-02  0.475253E-02  0.475923E-02
  0.484466E-02  0.500212E-02  0.520841E-02  0.547004E-02  0.577526E-02  0.610386E-02
  0.645815E-02  0.682103E-02  0.718365E-02  0.753711E-02  0.786341E-02  0.815472E-02
  0.840338E-02  0.859380E-02  0.872895E-02  0.879479E-02  0.879479E-02  0.872895E-02
  0.859380E-02  0.840338E-02  0.815472E-02  0.786341E-02  0.753711E-02  0.718365E-02
  0.682103E-02  0.645815E-02  0.610386E-02  0.577526E-02  0.547004E-02  0.520841E-02
  0.500212E-02  0.484466E-02  0.475923E-02  0.475253E-02  0.482624E-02  0.499439E-02
  0.526448E-02  0.562841E-02  0.607007E-02  0.657264E-02  0.711768E-02  0.767425E-02
  0.818988E-02  0.862870E-02  0.894720E-02  0.911218E-02  0.911218E-02  0.894720E-02
  0.862870E-02  0.818988E-02  0.767425E-02  0.711768E-02  0.657264E-02  0.607007E-02
  0.562841E-02  0.526448E-02  0.480887E-02  0.469335E-02  0.464201E-02  0.466154E-02
  0.475327E-02  0.489773E-02  0.509518E-02  0.534365E-02  0.563216E-02  0.595048E-02
  0.629774E-02  0.665662E-02  0.702252E-02  0.738582E-02  0.772396E-02  0.803802E-02
  0.830947E-02  0.852936E-02  0.869395E-02  0.879479E-02  0.882715E-02  0.879479E-02
  0.869395E-02  0.852936E-02  0.830947E-02  0.803802E-02  0.772396E-02  0.738582E-02
  0.702252E-02  0.665662E-02  0.629774E-02  0.595048E-02  0.563216E-02  0.534365E-02
  0.509518E-02  0.489773E-02  0.475327E-02  0.466154E-02  0.464201E-02  0.469335E-02
  0.480887E-02  0.499439E-02  0.525225E-02  0.556244E-02  0.590498E-02  0.626289E-02
  0.660980E-02  0.691870E-02  0.716399E-02  0.732174E-02  0.737558E-02  0.732174E-02
  0.716399E-02  0.691870E-02  0.660980E-02  0.626289E-02  0.590498E-02  0.556244E-02
  0.525225E-02  0.499439E-02  0.480887E-02  0.460481E-02  0.457002E-02  0.459531E-02
  0.467876E-02  0.480965E-02  0.498543E-02  0.521673E-02  0.548019E-02  0.578379E-02
  0.611970E-02  0.646880E-02  0.682954E-02  0.719259E-02  0.753807E-02  0.786404E-02
  0.815487E-02  0.839979E-02  0.859355E-02  0.872510E-02  0.879479E-02  0.879479E-02
  0.872510E-02  0.859355E-02  0.839979E-02  0.815487E-02  0.786404E-02  0.753807E-02
  0.719259E-02  0.682954E-02  0.646880E-02  0.611970E-02  0.578379E-02  0.548019E-02
  0.521673E-02  0.498543E-02  0.480965E-02  0.467876E-02  0.459531E-02  0.457002E-02
  0.460481E-02  0.469335E-02  0.482624E-02  0.500462E-02  0.522035E-02  0.545895E-02
  0.569879E-02  0.592406E-02  0.610837E-02  0.624462E-02  0.631584E-02  0.631584E-02
  0.624462E-02  0.610837E-02  0.592406E-02  0.569879E-02  0.545895E-02  0.522035E-02
  0.500462E-02  0.482624E-02  0.469335E-02  0.460481E-02  0.454060E-02  0.456406E-02
  0.462561E-02  0.473486E-02  0.489330E-02  0.509454E-02  0.533631E-02  0.561652E-02
  0.593015E-02  0.625990E-02  0.661057E-02  0.696492E-02  0.731244E-02  0.764671E-02
  0.795036E-02  0.821599E-02  0.843440E-02  0.859355E-02  0.869395E-02  0.872895E-02
  0.869395E-02  0.859355E-02  0.843440E-02  0.821599E-02  0.795036E-02  0.764671E-02
  0.731244E-02  0.696492E-02  0.661057E-02  0.625990E-02  0.593015E-02  0.561652E-02
  0.533631E-02  0.509454E-02  0.489330E-02  0.473486E-02  0.462561E-02  0.456406E-02
  0.454060E-02  0.457002E-02  0.464201E-02  0.475253E-02  0.488747E-02  0.504266E-02
  0.520802E-02  0.536974E-02  0.551343E-02  0.562947E-02  0.570420E-02  0.572571E-02
  0.570420E-02  0.562947E-02  0.551343E-02  0.536974E-02  0.520802E-02  0.504266E-02
  0.488747E-02  0.475253E-02  0.464201E-02  0.457002E-02  0.454060E-02  0.456327E-02
  0.460413E-02  0.468738E-02  0.481911E-02  0.498752E-02  0.519743E-02  0.544969E-02
  0.573270E-02  0.604293E-02  0.637847E-02  0.672003E-02  0.705925E-02  0.739198E-02
  0.770029E-02  0.797958E-02  0.821599E-02  0.839979E-02  0.852936E-02  0.859380E-02
  0.859380E-02  0.852936E-02  0.839979E-02  0.821599E-02  0.797958E-02  0.770029E-02
  0.739198E-02  0.705925E-02  0.672003E-02  0.637847E-02  0.604293E-02  0.573270E-02
  0.544969E-02  0.519743E-02  0.498752E-02  0.481911E-02  0.468738E-02  0.460413E-02
  0.456327E-02  0.456406E-02  0.459531E-02  0.466154E-02  0.475923E-02  0.487253E-02
  0.499908E-02  0.512669E-02  0.524218E-02  0.533922E-02  0.540855E-02  0.544644E-02
  0.544644E-02  0.540855E-02  0.533922E-02  0.524218E-02  0.512669E-02  0.499908E-02
  0.487253E-02  0.475923E-02  0.466154E-02  0.459531E-02  0.456406E-02  0.456327E-02
  0.461865E-02  0.467536E-02  0.476955E-02  0.490257E-02  0.507835E-02  0.529678E-02
  0.554689E-02  0.582869E-02  0.613653E-02  0.645618E-02  0.678280E-02  0.710744E-02
  0.741414E-02  0.770029E-02  0.795036E-02  0.815487E-02  0.830947E-02  0.840338E-02
  0.843520E-02  0.840338E-02  0.830947E-02  0.815487E-02  0.795036E-02  0.770029E-02
  0.741414E-02  0.710744E-02  0.678280E-02  0.645618E-02  0.613653E-02  0.582869E-02
  0.554689E-02  0.529678E-02  0.507835E-02  0.490257E-02  0.476955E-02  0.467536E-02
  0.461865E-02  0.460413E-02  0.462561E-02  0.467876E-02  0.475327E-02  0.484466E-02
  0.494749E-02  0.505606E-02  0.516282E-02  0.525838E-02  0.533012E-02  0.537527E-02
  0.539835E-02  0.537527E-02  0.533012E-02  0.525838E-02  0.516282E-02  0.505606E-02
  0.494749E-02  0.484466E-02  0.475327E-02  0.467876E-02  0.462561E-02  0.460413E-02
  0.461865E-02  0.469205E-02  0.474729E-02  0.484460E-02  0.498333E-02  0.516177E-02
  0.537596E-02  0.562377E-02  0.589713E-02  0.618916E-02  0.649793E-02  0.680724E-02
  0.710744E-02  0.739198E-02  0.764671E-02  0.786404E-02  0.803802E-02  0.815472E-02
  0.821699E-02  0.821699E-02  0.815472E-02  0.803802E-02  0.786404E-02  0.764671E-02
  0.739198E-02  0.710744E-02  0.680724E-02  0.649793E-02  0.618916E-02  0.589713E-02
  0.562377E-02  0.537596E-02  0.516177E-02  0.498333E-02  0.484460E-02  0.474729E-02
  0.469205E-02  0.467536E-02  0.468738E-02  0.473486E-02  0.480965E-02  0.489773E-02
  0.500212E-02  0.510674E-02  0.521335E-02  0.530372E-02  0.538308E-02  0.543686E-02
  0.546719E-02  0.546719E-02  0.543686E-02  0.538308E-02  0.530372E-02  0.521335E-02
  0.510674E-02  0.500212E-02  0.489773E-02  0.480965E-02  0.473486E-02  0.468738E-02
  0.467536E-02  0.469205E-02  0.476371E-02  0.482253E-02  0.491748E-02  0.504981E-02
  0.522303E-02  0.542992E-02  0.566896E-02  0.593199E-02  0.621311E-02  0.649793E-02
  0.678280E-02  0.705925E-02  0.731244E-02  0.753807E-02  0.772396E-02  0.786341E-02
  0.794971E-02  0.797826E-02  0.794971E-02  0.786341E-02  0.772396E-02  0.753807E-02
  0.731244E-02  0.705925E-02  0.678280E-02  0.649793E-02  0.621311E-02  0.593199E-02
  0.566896E-02  0.542992E-02  0.522303E-02  0.504981E-02  0.491748E-02  0.482253E-02
  0.476371E-02  0.474729E-02  0.476955E-02  0.481911E-02  0.489330E-02  0.498543E-02
  0.509518E-02  0.520841E-02  0.532609E-02  0.543504E-02  0.552100E-02  0.559242E-02
  0.563542E-02  0.565196E-02  0.563542E-02  0.559242E-02  0.552100E-02  0.543504E-02
  0.532609E-02  0.520841E-02  0.509518E-02  0.498543E-02  0.489330E-02  0.481911E-02
  0.476955E-02  0.474729E-02  0.476371E-02  0.483255E-02  0.488046E-02  0.496913E-02
  0.510021E-02  0.526448E-02  0.546093E-02  0.568734E-02  0.593199E-02  0.618916E-02
  0.645618E-02  0.672003E-02  0.696492E-02  0.719259E-02  0.738582E-02  0.753711E-02
  0.764563E-02  0.769637E-02  0.769637E-02  0.764563E-02  0.753711E-02  0.738582E-02
  0.719259E-02  0.696492E-02  0.672003E-02  0.645618E-02  0.618916E-02  0.593199E-02
  0.568734E-02  0.546093E-02  0.526448E-02  0.510021E-02  0.496913E-02  0.488046E-02
  0.483255E-02  0.482253E-02  0.484460E-02  0.490257E-02  0.498752E-02  0.509454E-02
  0.521673E-02  0.534365E-02  0.547004E-02  0.559104E-02  0.570038E-02  0.578779E-02
  0.584678E-02  0.588157E-02  0.588157E-02  0.584678E-02  0.578779E-02  0.570038E-02
  0.559104E-02  0.547004E-02  0.534365E-02  0.521673E-02  0.509454E-02  0.498752E-02
  0.490257E-02  0.484460E-02  0.482253E-02  0.483255E-02  0.488336E-02  0.492861E-02
  0.500921E-02  0.512431E-02  0.527673E-02  0.546093E-02  0.566896E-02  0.589713E-02
  0.613653E-02  0.637847E-02  0.661057E-02  0.682954E-02  0.702252E-02  0.718365E-02
  0.730493E-02  0.737900E-02  0.740498E-02  0.737900E-02  0.730493E-02  0.718365E-02
  0.702252E-02  0.682954E-02  0.661057E-02  0.637847E-02  0.613653E-02  0.589713E-02
  0.566896E-02  0.546093E-02  0.527673E-02  0.512431E-02  0.500921E-02  0.492861E-02
  0.488336E-02  0.488046E-02  0.491748E-02  0.498333E-02  0.507835E-02  0.519743E-02
  0.533631E-02  0.548019E-02  0.563216E-02  0.577526E-02  0.590224E-02  0.601366E-02
  0.609358E-02  0.614488E-02  0.616283E-02  0.614488E-02  0.609358E-02  0.601366E-02
  0.590224E-02  0.577526E-02  0.563216E-02  0.548019E-02  0.533631E-02  0.519743E-02
  0.507835E-02  0.498333E-02  0.491748E-02  0.488046E-02  0.488336E-02  0.492180E-02
  0.494942E-02  0.501850E-02  0.512431E-02  0.526448E-02  0.542992E-02  0.562377E-02
  0.582869E-02  0.604293E-02  0.625990E-02  0.646880E-02  0.665662E-02  0.682103E-02
  0.695391E-02  0.704093E-02  0.709016E-02  0.709016E-02  0.704093E-02  0.695391E-02
  0.682103E-02  0.665662E-02  0.646880E-02  0.625990E-02  0.604293E-02  0.582869E-02
  0.562377E-02  0.542992E-02  0.526448E-02  0.512431E-02  0.501850E-02  0.494942E-02
  0.492180E-02  0.492861E-02  0.496913E-02  0.504981E-02  0.516177E-02  0.529678E-02
  0.544969E-02  0.561652E-02  0.578379E-02  0.595048E-02  0.610386E-02  0.623809E-02
  0.634387E-02  0.642196E-02  0.645906E-02  0.645906E-02  0.642196E-02  0.634387E-02
  0.623809E-02  0.610386E-02  0.595048E-02  0.578379E-02  0.561652E-02  0.544969E-02
  0.529678E-02  0.516177E-02  0.504981E-02  0.496913E-02  0.492861E-02  0.492180E-02
  0.492252E-02  0.494942E-02  0.500921E-02  0.510021E-02  0.522303E-02  0.537596E-02
  0.554689E-02  0.573270E-02  0.593015E-02  0.611970E-02  0.629774E-02  0.645815E-02
  0.659252E-02  0.669202E-02  0.675508E-02  0.677544E-02  0.675508E-02  0.669202E-02
  0.659252E-02  0.645815E-02  0.629774E-02  0.611970E-02  0.593015E-02  0.573270E-02
  0.554689E-02  0.537596E-02  0.522303E-02  0.510021E-02  0.500921E-02  0.494942E-02
  0.492252E-02  0.494942E-02  0.500921E-02  0.510021E-02  0.522303E-02  0.537596E-02
  0.554689E-02  0.573270E-02  0.593015E-02  0.611970E-02  0.629774E-02  0.645815E-02
  0.659252E-02  0.669202E-02  0.675508E-02  0.677544E-02  0.675508E-02  0.669202E-02
  0.659252E-02  0.645815E-02  0.629774E-02  0.611970E-02  0.593015E-02  0.573270E-02
  0.554689E-02  0.537596E-02  0.522303E-02  0.510021E-02  0.500921E-02  0.494942E-02
  0.492252E-02  0.492180E-02  0.492861E-02  0.496913E-02  0.504981E-02  0.516177E-02
  0.529678E-02  0.544969E-02  0.561652E-02  0.578379E-02  0.595048E-02  0.610386E-02
  0.623809E-02  0.634387E-02  0.642196E-02  0.645906E-02  0.645906E-02  0.642196E-02
  0.634387E-02  0.623809E-02  0.610386E-02  0.595048E-02  0.578379E-02  0.561652E-02
  0.544969E-02  0.529678E-02  0.516177E-02  0.504981E-02  0.496913E-02  0.492861E-02
  0.492180E-02  0.494942E-02  0.501850E-02  0.512431E-02  0.526448E-02  0.542992E-02
  0.562377E-02  0.582869E-02  0.604293E-02  0.625990E-02  0.646880E-02  0.665662E-02
  0.682103E-02  0.695391E-02  0.704093E-02  0.709016E-02  0.709016E-02  0.704093E-02
  0.695391E-02  0.682103E-02  0.665662E-02  0.646880E-02  0.625990E-02  0.604293E-02
  0.582869E-02  0.562377E-02  0.542992E-02  0.526448E-02  0.512431E-02  0.501850E-02
  0.494942E-02  0.492180E-02  0.488336E-02  0.488046E-02  0.491748E-02  0.498333E-02
  0.507835E-02  0.519743E-02  0.533631E-02  0.548019E-02  0.563216E-02  0.577526E-02
  0.590224E-02  0.601366E-02  0.609358E-02  0.614488E-02  0.616283E-02  0.614488E-02
  0.609358E-02  0.601366E-02  0.590224E-02  0.577526E-02  0.563216E-02  0.548019E-02
  0.533631E-02  0.519743E-02  0.507835E-02  0.498333E-02  0.491748E-02  0.488046E-02
  0.488336E-02  0.492861E-02  0.500921E-02  0.512431E-02  0.527673E-02  0.546093E-02
  0.566896E-02  0.589713E-02  0.613653E-02  0.637847E-02  0.661057E-02  0.682954E-02
  0.702252E-02  0.718365E-02  0.730493E-02  0.737900E-02  0.740498E-02  0.737900E-02
  0.730493E-02  0.718365E-02  0.702252E-02  0.682954E-02  0.661057E-02  0.637847E-02
  0.613653E-02  0.589713E-02  0.566896E-02  0.546093E-02  0.527673E-02  0.512431E-02
  0.500921E-02  0.492861E-02  0.488336E-02  0.483255E-02  0.482253E-02  0.484460E-02
  0.490257E-02  0.498752E-02  0.509454E-02  0.521673E-02  0.534365E-02  0.547004E-02
  0.559104E-02  0.570038E-02  0.578779E-02  0.584678E-02  0.588157E-02  0.588157E-02
  0.584678E-02  0.578779E-02  0.570038E-02  0.559104E-02  0.547004E-02  0.534365E-02
  0.521673E-02  0.509454E-02  0.498752E-02  0.490257E-02  0.484460E-02  0.482253E-02
  0.483255E-02  0.488046E-02  0.496913E-02  0.510021E-02  0.526448E-02  0.546093E-02
  0.568734E-02  0.593199E-02  0.618916E-02  0.645618E-02  0.672003E-02  0.696492E-02
  0.719259E-02  0.738582E-02  0.753711E-02  0.764563E-02  0.769637E-02  0.769637E-02
  0.764563E-02  0.753711E-02  0.738582E-02  0.719259E-02  0.696492E-02  0.672003E-02
  0.645618E-02  0.618916E-02  0.593199E-02  0.568734E-02  0.546093E-02  0.526448E-02
  0.510021E-02  0.496913E-02  0.488046E-02  0.483255E-02  0.476371E-02  0.474729E-02