
     Program PWSCF v.7.0 starts on  1Feb2022 at 18:50:26 

     This program is part of the open-source Quantum ESPRESSO suite
     for quantum simulation of materials; please cite
         "P. Giannozzi et al., J. Phys.:Condens. Matter 21 395502 (2009);
         "P. Giannozzi et al., J. Phys.:Condens. Matter 29 465901 (2017);
         "P. Giannozzi et al., J. Chem. Phys. 152 154105 (2020);
          URL http://www.quantum-espresso.org", 
     in publications or presentations arising from this work. More details at
     http://www.quantum-espresso.org/quote

     Parallel version (MPI), running on     1 processors

     MPI processes distributed on     1 nodes
     114 MiB available memory on the printing compute node when the environment starts

     Reading input from 01-nio-hub-scf.in
     Message from routine read_cards :
     DEPRECATED: no units specified in CELL_PARAMETERS card

     Current dimensions of program PWSCF are:
     Max number of different atomic species (ntypx) = 10
     Max number of k-points (npk) =  40000
     Max angular momentum in pseudopotentials (lmaxx) =  4
     Message from routine volume:
     axis vectors are left-handed
     Message from routine setup:
     using ibrav=0 with symmetry is DISCOURAGED, use correct ibrav instead

     Subspace diagonalization in iterative solution of the eigenvalue problem:
     a serial algorithm will be used


     G-vector sticks info
     --------------------
     sticks:   dense  smooth     PW     G-vecs:    dense   smooth      PW
     Sum        2457     813    279                60755    11627    2297

     Using Slab Decomposition



     bravais-lattice index     =            0
     lattice parameter (alat)  =       7.8802  a.u.
     unit-cell volume          =     244.6666 (a.u.)^3
     number of atoms/cell      =            4
     number of atomic types    =            3
     number of electrons       =        48.00
     number of Kohn-Sham states=           30
     kinetic-energy cutoff     =      50.0000  Ry
     charge density cutoff     =     600.0000  Ry
     scf convergence threshold =      1.0E-10
     mixing beta               =       0.7000
     number of iterations used =            8  plain     mixing
     Exchange-correlation=  SLA  PW   PBX  PBC
                           (   1   4   3   4   0   0   0)

     celldm(1)=   7.880158  celldm(2)=   0.000000  celldm(3)=   0.000000
     celldm(4)=   0.000000  celldm(5)=   0.000000  celldm(6)=   0.000000

     crystal axes: (cart. coord. in units of alat)
               a(1) = (   0.500000   0.500000   1.000000 )  
               a(2) = (   0.500000   1.000000   0.500000 )  
               a(3) = (   1.000000   0.500000   0.500000 )  

     reciprocal axes: (cart. coord. in units 2 pi/alat)
               b(1) = ( -0.500000 -0.500000  1.500000 )  
               b(2) = ( -0.500000  1.500000 -0.500000 )  
               b(3) = (  1.500000 -0.500000 -0.500000 )  


     PseudoPot. # 1 for O  read from file:
     /home/user/pseudo_dir/o_pbe_v1.2.uspp.F.UPF
     MD5 check sum: 734c27235a0248c51dbae37a1fbe46ec
     Pseudo is Ultrasoft + core correction, Zval =  6.0
     Generated by new atomic code, or converted to UPF format
     Using radial grid of  737 points,  5 beta functions with: 
                l(1) =   0
                l(2) =   0
                l(3) =   1
                l(4) =   1
                l(5) =   2
     Q(r) pseudized with  8 coefficients,  rinner =    0.900   0.900   0.900
                                                       0.900   0.900

     PseudoPot. # 2 for Ni read from file:
     /home/user/pseudo_dir/ni_pbe_v1.4.uspp.F.UPF
     MD5 check sum: 1ee80287db30b12d2bc1f57a5b5d6409
     Pseudo is Ultrasoft + core correction, Zval = 18.0
     Generated by new atomic code, or converted to UPF format
     Using radial grid of  865 points,  6 beta functions with: 
                l(1) =   0
                l(2) =   0
                l(3) =   1
                l(4) =   1
                l(5) =   2
                l(6) =   2
     Q(r) pseudized with 10 coefficients,  rinner =    0.980   0.980   0.980
                                                       0.980   0.980

     PseudoPot. # 3 for Ni read from file:
     /home/user/pseudo_dir/ni_pbe_v1.4.uspp.F.UPF
     MD5 check sum: 1ee80287db30b12d2bc1f57a5b5d6409
     Pseudo is Ultrasoft + core correction, Zval = 18.0
     Generated by new atomic code, or converted to UPF format
     Using radial grid of  865 points,  6 beta functions with: 
                l(1) =   0
                l(2) =   0
                l(3) =   1
                l(4) =   1
                l(5) =   2
                l(6) =   2
     Q(r) pseudized with 10 coefficients,  rinner =    0.980   0.980   0.980
                                                       0.980   0.980

     atomic species   valence    mass     pseudopotential
        O              6.00    15.99940     O ( 1.00)
        Ni1           18.00    58.59340     Ni( 1.00)
        Ni2           18.00    58.59340     Ni( 1.00)

     Starting magnetic structure 
     atomic species   magnetization
        O            0.000
        Ni1          0.500
        Ni2         -0.500


     Simplified LDA+U calculation (l_max = 2) with parameters (eV):
     atomic species    L          U    alpha       J0     beta
        Ni1            2     4.6000   0.0000   0.0000   0.0000
        Ni2            2     4.6000   0.0000   0.0000   0.0000



     12 Sym. Ops., with inversion, found


                                    s                        frac. trans.

      isym =  1     identity                                     

 cryst.   s( 1) = (     1          0          0      )
                  (     0          1          0      )
                  (     0          0          1      )

 cart.    s( 1) = (  1.0000000  0.0000000  0.0000000 )
                  (  0.0000000  1.0000000  0.0000000 )
                  (  0.0000000  0.0000000  1.0000000 )


      isym =  2     180 deg rotation - cart. axis [1,-1,0]       

 cryst.   s( 2) = (    -1          0          0      )
                  (     0          0         -1      )
                  (     0         -1          0      )

 cart.    s( 2) = (  0.0000000 -1.0000000  0.0000000 )
                  ( -1.0000000  0.0000000  0.0000000 )
                  (  0.0000000  0.0000000 -1.0000000 )


      isym =  3     180 deg rotation - cart. axis [-1,0,1]       

 cryst.   s( 3) = (     0          0         -1      )
                  (     0         -1          0      )
                  (    -1          0          0      )

 cart.    s( 3) = (  0.0000000  0.0000000 -1.0000000 )
                  (  0.0000000 -1.0000000  0.0000000 )
                  ( -1.0000000  0.0000000  0.0000000 )


      isym =  4     180 deg rotation - cart. axis [0,1,-1]       

 cryst.   s( 4) = (     0         -1          0      )
                  (    -1          0          0      )
                  (     0          0         -1      )

 cart.    s( 4) = ( -1.0000000  0.0000000  0.0000000 )
                  (  0.0000000  0.0000000 -1.0000000 )
                  (  0.0000000 -1.0000000  0.0000000 )


      isym =  5     120 deg rotation - cart. axis [-1,-1,-1]     

 cryst.   s( 5) = (     0          1          0      )
                  (     0          0          1      )
                  (     1          0          0      )

 cart.    s( 5) = (  0.0000000  1.0000000  0.0000000 )
                  (  0.0000000  0.0000000  1.0000000 )
                  (  1.0000000  0.0000000  0.0000000 )


      isym =  6     120 deg rotation - cart. axis [1,1,1]        

 cryst.   s( 6) = (     0          0          1      )
                  (     1          0          0      )
                  (     0          1          0      )

 cart.    s( 6) = (  0.0000000  0.0000000  1.0000000 )
                  (  1.0000000  0.0000000  0.0000000 )
                  (  0.0000000  1.0000000  0.0000000 )


      isym =  7     inversion                                    

 cryst.   s( 7) = (    -1          0          0      )
                  (     0         -1          0      )
                  (     0          0         -1      )

 cart.    s( 7) = ( -1.0000000  0.0000000  0.0000000 )
                  (  0.0000000 -1.0000000  0.0000000 )
                  (  0.0000000  0.0000000 -1.0000000 )


      isym =  8     inv. 180 deg rotation - cart. axis [1,-1,0]  

 cryst.   s( 8) = (     1          0          0      )
                  (     0          0          1      )
                  (     0          1          0      )

 cart.    s( 8) = (  0.0000000  1.0000000  0.0000000 )
                  (  1.0000000  0.0000000  0.0000000 )
                  (  0.0000000  0.0000000  1.0000000 )


      isym =  9     inv. 180 deg rotation - cart. axis [-1,0,1]  

 cryst.   s( 9) = (     0          0          1      )
                  (     0          1          0      )
                  (     1          0          0      )

 cart.    s( 9) = (  0.0000000  0.0000000  1.0000000 )
                  (  0.0000000  1.0000000  0.0000000 )
                  (  1.0000000  0.0000000  0.0000000 )


      isym = 10     inv. 180 deg rotation - cart. axis [0,1,-1]  

 cryst.   s(10) = (     0          1          0      )
                  (     1          0          0      )
                  (     0          0          1      )

 cart.    s(10) = (  1.0000000  0.0000000  0.0000000 )
                  (  0.0000000  0.0000000  1.0000000 )
                  (  0.0000000  1.0000000  0.0000000 )


      isym = 11     inv. 120 deg rotation - cart. axis [-1,-1,-1]

 cryst.   s(11) = (     0         -1          0      )
                  (     0          0         -1      )
                  (    -1          0          0      )

 cart.    s(11) = (  0.0000000 -1.0000000  0.0000000 )
                  (  0.0000000  0.0000000 -1.0000000 )
                  ( -1.0000000  0.0000000  0.0000000 )


      isym = 12     inv. 120 deg rotation - cart. axis [1,1,1]   

 cryst.   s(12) = (     0          0         -1      )
                  (    -1          0          0      )
                  (     0         -1          0      )

 cart.    s(12) = (  0.0000000  0.0000000 -1.0000000 )
                  ( -1.0000000  0.0000000  0.0000000 )
                  (  0.0000000 -1.0000000  0.0000000 )


   Cartesian axes

     site n.     atom                  positions (alat units)
         1           O   tau(   1) = (   0.5000000   0.5000000   0.5000000  )
         2           O   tau(   2) = (   1.5000000   1.5000000   1.5000000  )
         3           Ni1 tau(   3) = (   0.0000000   0.0000000   0.0000000  )
         4           Ni2 tau(   4) = (   1.0000000   1.0000000   1.0000000  )

   Crystallographic axes

     site n.     atom                  positions (cryst. coord.)
         1           O   tau(   1) = (  0.2500000  0.2500000  0.2500000  )
         2           O   tau(   2) = (  0.7500000  0.7500000  0.7500000  )
         3           Ni1 tau(   3) = (  0.0000000  0.0000000  0.0000000  )
         4           Ni2 tau(   4) = (  0.5000000  0.5000000  0.5000000  )

     number of k points=    65  Methfessel-Paxton smearing, width (Ry)=  0.0010
                       cart. coord. in units 2pi/alat
        k(    1) = (   0.0000000   0.0000000   0.0000000), wk =   0.0019531
        k(    2) = (   0.1875000  -0.0625000  -0.0625000), wk =   0.0117188
        k(    3) = (   0.3750000  -0.1250000  -0.1250000), wk =   0.0117188
        k(    4) = (   0.5625000  -0.1875000  -0.1875000), wk =   0.0117188
        k(    5) = (  -0.7500000   0.2500000   0.2500000), wk =   0.0058594
        k(    6) = (   0.1250000   0.1250000  -0.1250000), wk =   0.0117188
        k(    7) = (   0.3125000   0.0625000  -0.1875000), wk =   0.0234375
        k(    8) = (   0.5000000   0.0000000  -0.2500000), wk =   0.0234375
        k(    9) = (  -0.8125000   0.4375000   0.1875000), wk =   0.0234375
        k(   10) = (  -0.6250000   0.3750000   0.1250000), wk =   0.0234375
        k(   11) = (  -0.4375000   0.3125000   0.0625000), wk =   0.0234375
        k(   12) = (  -0.2500000   0.2500000   0.0000000), wk =   0.0117188
        k(   13) = (   0.2500000   0.2500000  -0.2500000), wk =   0.0117188
        k(   14) = (   0.4375000   0.1875000  -0.3125000), wk =   0.0234375
        k(   15) = (  -0.8750000   0.6250000   0.1250000), wk =   0.0234375
        k(   16) = (  -0.6875000   0.5625000   0.0625000), wk =   0.0234375
        k(   17) = (  -0.5000000   0.5000000   0.0000000), wk =   0.0117188
        k(   18) = (   0.3750000   0.3750000  -0.3750000), wk =   0.0117188
        k(   19) = (  -0.9375000   0.8125000   0.0625000), wk =   0.0234375
        k(   20) = (  -0.7500000   0.7500000   0.0000000), wk =   0.0117188
        k(   21) = (  -0.5000000  -0.5000000   0.5000000), wk =   0.0058594
        k(   22) = (   0.0625000   0.0625000   0.0625000), wk =   0.0039062
        k(   23) = (   0.2500000   0.0000000   0.0000000), wk =   0.0117188
        k(   24) = (   0.4375000  -0.0625000  -0.0625000), wk =   0.0117188
        k(   25) = (  -0.8750000   0.3750000   0.3750000), wk =   0.0117188
        k(   26) = (  -0.6875000   0.3125000   0.3125000), wk =   0.0117188
        k(   27) = (  -0.5000000   0.2500000   0.2500000), wk =   0.0117188
        k(   28) = (  -0.3125000   0.1875000   0.1875000), wk =   0.0117188
        k(   29) = (   0.1875000   0.1875000  -0.0625000), wk =   0.0117188
        k(   30) = (   0.3750000   0.1250000  -0.1250000), wk =   0.0234375
        k(   31) = (  -0.9375000   0.5625000   0.3125000), wk =   0.0234375
        k(   32) = (  -0.7500000   0.5000000   0.2500000), wk =   0.0234375
        k(   33) = (  -0.5625000   0.4375000   0.1875000), wk =   0.0234375
        k(   34) = (  -0.3750000   0.3750000   0.1250000), wk =   0.0234375
        k(   35) = (   0.3125000   0.3125000  -0.1875000), wk =   0.0117188
        k(   36) = (  -1.0000000   0.7500000   0.2500000), wk =   0.0234375
        k(   37) = (  -0.8125000   0.6875000   0.1875000), wk =   0.0234375
        k(   38) = (  -0.6250000   0.6250000   0.1250000), wk =   0.0234375
        k(   39) = (  -0.4375000   0.5625000   0.0625000), wk =   0.0234375
        k(   40) = (  -0.5625000  -0.5625000   0.6875000), wk =   0.0117188
        k(   41) = (  -0.3750000  -0.6250000   0.6250000), wk =   0.0234375
        k(   42) = (  -0.1875000  -0.6875000   0.5625000), wk =   0.0234375
        k(   43) = (   0.0000000  -0.7500000   0.5000000), wk =   0.0117188
        k(   44) = (  -0.4375000  -0.4375000   0.5625000), wk =   0.0117188
        k(   45) = (  -0.2500000  -0.5000000   0.5000000), wk =   0.0234375
        k(   46) = (  -0.3125000  -0.3125000   0.4375000), wk =   0.0117188
        k(   47) = (   0.1250000   0.1250000   0.1250000), wk =   0.0039062
        k(   48) = (   0.3125000   0.0625000   0.0625000), wk =   0.0117188
        k(   49) = (  -1.0000000   0.5000000   0.5000000), wk =   0.0117188
        k(   50) = (  -0.8125000   0.4375000   0.4375000), wk =   0.0117188
        k(   51) = (  -0.6250000   0.3750000   0.3750000), wk =   0.0117188
        k(   52) = (   0.2500000   0.2500000   0.0000000), wk =   0.0117188
        k(   53) = (  -1.0625000   0.6875000   0.4375000), wk =   0.0234375
        k(   54) = (  -0.8750000   0.6250000   0.3750000), wk =   0.0234375
        k(   55) = (  -0.6875000   0.5625000   0.3125000), wk =   0.0234375
        k(   56) = (  -0.6250000  -0.6250000   0.8750000), wk =   0.0117188
        k(   57) = (  -0.4375000  -0.6875000   0.8125000), wk =   0.0234375
        k(   58) = (  -0.2500000  -0.7500000   0.7500000), wk =   0.0117188
        k(   59) = (  -0.5000000  -0.5000000   0.7500000), wk =   0.0117188
        k(   60) = (   0.1875000   0.1875000   0.1875000), wk =   0.0039062
        k(   61) = (  -1.1250000   0.6250000   0.6250000), wk =   0.0117188
        k(   62) = (  -0.9375000   0.5625000   0.5625000), wk =   0.0117188
        k(   63) = (  -0.6875000  -0.6875000   1.0625000), wk =   0.0117188
        k(   64) = (  -0.5000000  -0.7500000   1.0000000), wk =   0.0117188
        k(   65) = (  -0.2500000  -0.2500000  -0.2500000), wk =   0.0019531

                       cryst. coord.
        k(    1) = (   0.0000000   0.0000000   0.0000000), wk =   0.0019531
        k(    2) = (   0.0000000   0.0000000   0.1250000), wk =   0.0117188
        k(    3) = (   0.0000000   0.0000000   0.2500000), wk =   0.0117188
        k(    4) = (   0.0000000   0.0000000   0.3750000), wk =   0.0117188
        k(    5) = (   0.0000000   0.0000000  -0.5000000), wk =   0.0058594
        k(    6) = (   0.0000000   0.1250000   0.1250000), wk =   0.0117188
        k(    7) = (   0.0000000   0.1250000   0.2500000), wk =   0.0234375
        k(    8) = (   0.0000000   0.1250000   0.3750000), wk =   0.0234375
        k(    9) = (   0.0000000   0.1250000  -0.5000000), wk =   0.0234375
        k(   10) = (   0.0000000   0.1250000  -0.3750000), wk =   0.0234375
        k(   11) = (   0.0000000   0.1250000  -0.2500000), wk =   0.0234375
        k(   12) = (   0.0000000   0.1250000  -0.1250000), wk =   0.0117188
        k(   13) = (   0.0000000   0.2500000   0.2500000), wk =   0.0117188
        k(   14) = (   0.0000000   0.2500000   0.3750000), wk =   0.0234375
        k(   15) = (   0.0000000   0.2500000  -0.5000000), wk =   0.0234375
        k(   16) = (   0.0000000   0.2500000  -0.3750000), wk =   0.0234375
        k(   17) = (   0.0000000   0.2500000  -0.2500000), wk =   0.0117188
        k(   18) = (   0.0000000   0.3750000   0.3750000), wk =   0.0117188
        k(   19) = (   0.0000000   0.3750000  -0.5000000), wk =   0.0234375
        k(   20) = (   0.0000000   0.3750000  -0.3750000), wk =   0.0117188
        k(   21) = (   0.0000000  -0.5000000  -0.5000000), wk =   0.0058594
        k(   22) = (   0.1250000   0.1250000   0.1250000), wk =   0.0039062
        k(   23) = (   0.1250000   0.1250000   0.2500000), wk =   0.0117188
        k(   24) = (   0.1250000   0.1250000   0.3750000), wk =   0.0117188
        k(   25) = (   0.1250000   0.1250000  -0.5000000), wk =   0.0117188
        k(   26) = (   0.1250000   0.1250000  -0.3750000), wk =   0.0117188
        k(   27) = (   0.1250000   0.1250000  -0.2500000), wk =   0.0117188
        k(   28) = (   0.1250000   0.1250000  -0.1250000), wk =   0.0117188
        k(   29) = (   0.1250000   0.2500000   0.2500000), wk =   0.0117188
        k(   30) = (   0.1250000   0.2500000   0.3750000), wk =   0.0234375
        k(   31) = (   0.1250000   0.2500000  -0.5000000), wk =   0.0234375
        k(   32) = (   0.1250000   0.2500000  -0.3750000), wk =   0.0234375
        k(   33) = (   0.1250000   0.2500000  -0.2500000), wk =   0.0234375
        k(   34) = (   0.1250000   0.2500000  -0.1250000), wk =   0.0234375
        k(   35) = (   0.1250000   0.3750000   0.3750000), wk =   0.0117188
        k(   36) = (   0.1250000   0.3750000  -0.5000000), wk =   0.0234375
        k(   37) = (   0.1250000   0.3750000  -0.3750000), wk =   0.0234375
        k(   38) = (   0.1250000   0.3750000  -0.2500000), wk =   0.0234375
        k(   39) = (   0.1250000   0.3750000  -0.1250000), wk =   0.0234375
        k(   40) = (   0.1250000  -0.5000000  -0.5000000), wk =   0.0117188
        k(   41) = (   0.1250000  -0.5000000  -0.3750000), wk =   0.0234375
        k(   42) = (   0.1250000  -0.5000000  -0.2500000), wk =   0.0234375
        k(   43) = (   0.1250000  -0.5000000  -0.1250000), wk =   0.0117188
        k(   44) = (   0.1250000  -0.3750000  -0.3750000), wk =   0.0117188
        k(   45) = (   0.1250000  -0.3750000  -0.2500000), wk =   0.0234375
        k(   46) = (   0.1250000  -0.2500000  -0.2500000), wk =   0.0117188
        k(   47) = (   0.2500000   0.2500000   0.2500000), wk =   0.0039062
        k(   48) = (   0.2500000   0.2500000   0.3750000), wk =   0.0117188
        k(   49) = (   0.2500000   0.2500000  -0.5000000), wk =   0.0117188
        k(   50) = (   0.2500000   0.2500000  -0.3750000), wk =   0.0117188
        k(   51) = (   0.2500000   0.2500000  -0.2500000), wk =   0.0117188
        k(   52) = (   0.2500000   0.3750000   0.3750000), wk =   0.0117188
        k(   53) = (   0.2500000   0.3750000  -0.5000000), wk =   0.0234375
        k(   54) = (   0.2500000   0.3750000  -0.3750000), wk =   0.0234375
        k(   55) = (   0.2500000   0.3750000  -0.2500000), wk =   0.0234375
        k(   56) = (   0.2500000  -0.5000000  -0.5000000), wk =   0.0117188
        k(   57) = (   0.2500000  -0.5000000  -0.3750000), wk =   0.0234375
        k(   58) = (   0.2500000  -0.5000000  -0.2500000), wk =   0.0117188
        k(   59) = (   0.2500000  -0.3750000  -0.3750000), wk =   0.0117188
        k(   60) = (   0.3750000   0.3750000   0.3750000), wk =   0.0039062
        k(   61) = (   0.3750000   0.3750000  -0.5000000), wk =   0.0117188
        k(   62) = (   0.3750000   0.3750000  -0.3750000), wk =   0.0117188
        k(   63) = (   0.3750000  -0.5000000  -0.5000000), wk =   0.0117188
        k(   64) = (   0.3750000  -0.5000000  -0.3750000), wk =   0.0117188
        k(   65) = (  -0.5000000  -0.5000000  -0.5000000), wk =   0.0019531

     Dense  grid:    60755 G-vectors     FFT dimensions: (  75,  75,  75)

     Smooth grid:    11627 G-vectors     FFT dimensions: (  45,  45,  45)

     Dynamical RAM for                 wfc:       0.67 MB

     Dynamical RAM for     wfc (w. buffer):      87.61 MB

     Dynamical RAM for             U proj.:       0.22 MB

     Dynamical RAM for  U proj. (w. buff.):      29.20 MB

     Dynamical RAM for           str. fact:       2.78 MB

     Dynamical RAM for           local pot:       0.00 MB

     Dynamical RAM for          nlocal pot:       1.38 MB

     Dynamical RAM for                qrad:       5.90 MB

     Dynamical RAM for          rho,v,vnew:      24.87 MB

     Dynamical RAM for               rhoin:       8.29 MB

     Dynamical RAM for            rho*nmix:      29.67 MB

     Dynamical RAM for           G-vectors:       3.57 MB

     Dynamical RAM for          h,s,v(r/c):       0.16 MB

     Dynamical RAM for          <psi|beta>:       0.03 MB

     Dynamical RAM for                 psi:       1.34 MB

     Dynamical RAM for                hpsi:       1.34 MB

     Dynamical RAM for                spsi:       1.34 MB

     Dynamical RAM for      wfcinit/wfcrot:       1.54 MB

     Dynamical RAM for           addusdens:     175.21 MB

     Dynamical RAM for          addusforce:     177.08 MB

     Dynamical RAM for         addusstress:     187.73 MB

     Estimated static dynamical RAM per process >     186.63 MB

     Estimated max dynamical RAM per process >     404.02 MB

     Check: negative core charge=   -0.000010
     Generating pointlists ...
     new r_m :   0.2063 (alat units)  1.6253 (a.u.) for type    1
     new r_m :   0.2063 (alat units)  1.6253 (a.u.) for type    2
     new r_m :   0.2063 (alat units)  1.6253 (a.u.) for type    3

     Initial potential from superposition of free atoms

     starting charge      44.0000, renormalised to      48.0000

     HUBBARD ENERGY =    0.4057  (Ry)
     Number of +U iterations with fixed ns =  0
     Starting occupations:

     Hubbard parameters (eV):
     U(  2) =  4.6000
     U(  3) =  4.6000

     ================= HUBBARD OCCUPATIONS ================
     --------------------- ATOM    3 ----------------------
     Tr[ns] (up, down, total) =   5.00000  3.00000  8.00000
     Atomic magnetic moment =   2.00000
     SPIN  1
     eigenvalues:
       1.000  1.000  1.000  1.000  1.000
     eigenvectors (columns):
       1.000  0.000  0.000  0.000  0.000
       0.000  1.000  0.000  0.000  0.000
       0.000  0.000  1.000  0.000  0.000
       0.000  0.000  0.000  1.000  0.000
       0.000  0.000  0.000  0.000  1.000
     occupation matrix ns (before diag.):
       1.000  0.000  0.000  0.000  0.000
       0.000  1.000  0.000  0.000  0.000
       0.000  0.000  1.000  0.000  0.000
       0.000  0.000  0.000  1.000  0.000
       0.000  0.000  0.000  0.000  1.000
     SPIN  2
     eigenvalues:
       0.600  0.600  0.600  0.600  0.600
     eigenvectors (columns):
       1.000  0.000  0.000  0.000  0.000
       0.000  1.000  0.000  0.000  0.000
       0.000  0.000  1.000  0.000  0.000
       0.000  0.000  0.000  1.000  0.000
       0.000  0.000  0.000  0.000  1.000
     occupation matrix ns (before diag.):
       0.600  0.000  0.000  0.000  0.000
       0.000  0.600  0.000  0.000  0.000
       0.000  0.000  0.600  0.000  0.000
       0.000  0.000  0.000  0.600  0.000
       0.000  0.000  0.000  0.000  0.600
     --------------------- ATOM    4 ----------------------
     Tr[ns] (up, down, total) =   3.00000  5.00000  8.00000
     Atomic magnetic moment =  -2.00000
     SPIN  1
     eigenvalues:
       0.600  0.600  0.600  0.600  0.600
     eigenvectors (columns):
       1.000  0.000  0.000  0.000  0.000
       0.000  1.000  0.000  0.000  0.000
       0.000  0.000  1.000  0.000  0.000
       0.000  0.000  0.000  1.000  0.000
       0.000  0.000  0.000  0.000  1.000
     occupation matrix ns (before diag.):
       0.600  0.000  0.000  0.000  0.000
       0.000  0.600  0.000  0.000  0.000
       0.000  0.000  0.600  0.000  0.000
       0.000  0.000  0.000  0.600  0.000
       0.000  0.000  0.000  0.000  0.600
     SPIN  2
     eigenvalues:
       1.000  1.000  1.000  1.000  1.000
     eigenvectors (columns):
       1.000  0.000  0.000  0.000  0.000
       0.000  1.000  0.000  0.000  0.000
       0.000  0.000  1.000  0.000  0.000
       0.000  0.000  0.000  1.000  0.000
       0.000  0.000  0.000  0.000  1.000
     occupation matrix ns (before diag.):
       1.000  0.000  0.000  0.000  0.000
       0.000  1.000  0.000  0.000  0.000
       0.000  0.000  1.000  0.000  0.000
       0.000  0.000  0.000  1.000  0.000
       0.000  0.000  0.000  0.000  1.000

     Number of occupied Hubbard levels =   16.0000
 Atomic wfc used for LDA+U Projector are NOT orthogonalized
     Starting wfcs are   34 randomized atomic wfcs

     total cpu time spent up to now is       15.2 secs

     Self-consistent Calculation

     iteration #  1     ecut=    50.00 Ry     beta= 0.70
     Davidson diagonalization with overlap

---- Real-time Memory Report at c_bands before calling an iterative solver
           254 MiB given to the printing process from OS
             0 MiB allocation reported by mallinfo(arena+hblkhd)
           140 MiB available memory on the node where the printing process lives
------------------
     ethr =  1.00E-02,  avg # of iterations =  4.0

     Hubbard parameters (eV):
     U(  2) =  4.6000
     U(  3) =  4.6000

     ================= HUBBARD OCCUPATIONS ================
     --------------------- ATOM    3 ----------------------
     Tr[ns] (up, down, total) =   4.10618  0.52933  4.63551
     Atomic magnetic moment =   3.57686
     SPIN  1
     eigenvalues:
       0.765  0.765  0.772  0.902  0.902
     eigenvectors (columns):
      -0.083 -0.007 -0.000  0.415  0.906
       0.347  0.736  0.577  0.068  0.006
       0.464 -0.668  0.577 -0.040  0.056
       0.007 -0.083 -0.000  0.906 -0.415
       0.811  0.068 -0.577  0.028  0.062
     occupation matrix ns (before diag.):
       0.901  0.005  0.005 -0.000  0.009
       0.005  0.768  0.002  0.008 -0.002
       0.005  0.002  0.768 -0.008 -0.002
      -0.000  0.008 -0.008  0.901 -0.000
       0.009 -0.002 -0.002 -0.000  0.768
     SPIN  2
     eigenvalues:
       0.064  0.064  0.122  0.122  0.159
     eigenvectors (columns):
       0.221  0.974  0.039 -0.000  0.000
      -0.031 -0.010  0.408  0.707 -0.577
       0.024 -0.022  0.408 -0.707 -0.577
       0.974 -0.221 -0.000  0.039 -0.000
      -0.007 -0.031  0.816  0.000  0.577
     occupation matrix ns (before diag.):
       0.064  0.001  0.001 -0.000  0.002
       0.001  0.134  0.012  0.002 -0.012
       0.001  0.012  0.134 -0.002 -0.012
      -0.000  0.002 -0.002  0.064 -0.000
       0.002 -0.012 -0.012 -0.000  0.134
     --------------------- ATOM    4 ----------------------
     Tr[ns] (up, down, total) =   0.52886  4.11065  4.63950
     Atomic magnetic moment =  -3.58179
     SPIN  1
     eigenvalues:
       0.064  0.064  0.122  0.122  0.158
     eigenvectors (columns):
       0.201  0.979  0.038 -0.000  0.000
      -0.029 -0.010  0.408  0.707 -0.577
       0.023 -0.020  0.408 -0.707 -0.577
       0.979 -0.201 -0.000  0.038 -0.000
      -0.006 -0.030  0.816  0.000  0.577
     occupation matrix ns (before diag.):
       0.064  0.001  0.001 -0.000  0.002
       0.001  0.134  0.012  0.002 -0.012
       0.001  0.012  0.134 -0.002 -0.012
      -0.000  0.002 -0.002  0.064 -0.000
       0.002 -0.012 -0.012 -0.000  0.134
     SPIN  2
     eigenvalues:
       0.766  0.766  0.774  0.903  0.903
     eigenvectors (columns):
      -0.088 -0.007 -0.000  0.453  0.887
       0.353  0.732  0.577  0.072  0.004
       0.458 -0.672  0.577 -0.039  0.061
       0.007 -0.088 -0.000  0.887 -0.453
       0.811  0.060 -0.577  0.033  0.064
     occupation matrix ns (before diag.):
       0.902  0.005  0.005 -0.000  0.010
       0.005  0.769  0.002  0.009 -0.002
       0.005  0.002  0.769 -0.009 -0.002
      -0.000  0.009 -0.009  0.902 -0.000
       0.010 -0.002 -0.002 -0.000  0.769

     Number of occupied Hubbard levels =    9.2750

     HUBBARD ENERGY =    0.3980  (Ry)

     total cpu time spent up to now is       59.5 secs

     total energy              =    -720.27719013 Ry
     estimated scf accuracy    <      51.96428183 Ry

     total magnetization       =    -0.01 Bohr mag/cell
     absolute magnetization    =     8.18 Bohr mag/cell

     iteration #  2     ecut=    50.00 Ry     beta= 0.70
     Davidson diagonalization with overlap

---- Real-time Memory Report at c_bands before calling an iterative solver
           397 MiB given to the printing process from OS
             0 MiB allocation reported by mallinfo(arena+hblkhd)
           286 MiB available memory on the node where the printing process lives
------------------
     ethr =  1.00E-02,  avg # of iterations =  3.8

     Hubbard parameters (eV):
     U(  2) =  4.6000
     U(  3) =  4.6000

     ================= HUBBARD OCCUPATIONS ================
     --------------------- ATOM    3 ----------------------
     Tr[ns] (up, down, total) =   4.65325  4.65467  9.30792
     Atomic magnetic moment =  -0.00143
     SPIN  1
     eigenvalues:
       0.928  0.928  0.928  0.934  0.934
     eigenvectors (columns):
       0.001  0.000  0.000  0.237  0.971
       0.392  0.716  0.577 -0.001 -0.000
       0.424 -0.698  0.577  0.001 -0.001
      -0.000  0.001 -0.000  0.971 -0.237
       0.816  0.019 -0.577 -0.000 -0.001
     occupation matrix ns (before diag.):
       0.934 -0.000 -0.000 -0.000 -0.000
      -0.000  0.928  0.000 -0.000 -0.000
      -0.000  0.000  0.928  0.000 -0.000
      -0.000 -0.000  0.000  0.934 -0.000
      -0.000 -0.000 -0.000 -0.000  0.928
     SPIN  2
     eigenvalues:
       0.929  0.929  0.929  0.934  0.934
     eigenvectors (columns):
      -0.002 -0.000  0.000 -0.498 -0.867
       0.399  0.712  0.577 -0.002 -0.000
       0.417 -0.702  0.577  0.001 -0.002
       0.000 -0.002 -0.000 -0.867  0.498
       0.816  0.011 -0.577 -0.001 -0.002
     occupation matrix ns (before diag.):
       0.934  0.000  0.000 -0.000  0.000
       0.000  0.929  0.000  0.000 -0.000
       0.000  0.000  0.929 -0.000 -0.000
      -0.000  0.000 -0.000  0.934 -0.000
       0.000 -0.000 -0.000 -0.000  0.929
     --------------------- ATOM    4 ----------------------
     Tr[ns] (up, down, total) =   4.65506  4.65361  9.30867
     Atomic magnetic moment =   0.00144
     SPIN  1
     eigenvalues:
       0.929  0.929  0.930  0.934  0.934
     eigenvectors (columns):
      -0.003 -0.000  0.000 -0.318 -0.948
       0.371  0.727  0.577 -0.003 -0.001
       0.444 -0.685  0.577  0.002 -0.002
       0.000 -0.003 -0.000 -0.948  0.318
       0.815  0.042 -0.577 -0.001 -0.002
     occupation matrix ns (before diag.):
       0.934  0.000  0.000 -0.000  0.000
       0.000  0.929  0.000  0.000 -0.000
       0.000  0.000  0.929 -0.000 -0.000
      -0.000  0.000 -0.000  0.934 -0.000
       0.000 -0.000 -0.000 -0.000  0.929
     SPIN  2
     eigenvalues:
       0.928  0.928  0.928  0.934  0.934
     eigenvectors (columns):
       0.000  0.000  0.000  0.333  0.943
       0.374  0.726  0.577 -0.000 -0.000
       0.441 -0.687  0.577  0.000 -0.000
      -0.000  0.000 -0.000  0.943 -0.333
       0.816  0.039 -0.577 -0.000 -0.000
     occupation matrix ns (before diag.):
       0.934 -0.000 -0.000 -0.000 -0.000
      -0.000  0.928  0.000 -0.000 -0.000
      -0.000  0.000  0.928  0.000 -0.000
      -0.000 -0.000  0.000  0.934 -0.000
      -0.000 -0.000 -0.000 -0.000  0.928

     Number of occupied Hubbard levels =   18.6166

     HUBBARD ENERGY =    0.5861  (Ry)

     total cpu time spent up to now is      108.7 secs

     total energy              =    -741.59268267 Ry
     estimated scf accuracy    <     108.61608384 Ry

     total magnetization       =     0.00 Bohr mag/cell
     absolute magnetization    =     1.03 Bohr mag/cell

     iteration #  3     ecut=    50.00 Ry     beta= 0.70
     Davidson diagonalization with overlap

---- Real-time Memory Report at c_bands before calling an iterative solver
           398 MiB given to the printing process from OS
             0 MiB allocation reported by mallinfo(arena+hblkhd)
           285 MiB available memory on the node where the printing process lives
------------------
     ethr =  1.00E-02,  avg # of iterations =  3.4

     Hubbard parameters (eV):
     U(  2) =  4.6000
     U(  3) =  4.6000

     ================= HUBBARD OCCUPATIONS ================
     --------------------- ATOM    3 ----------------------
     Tr[ns] (up, down, total) =   4.97644  4.70891  9.68535
     Atomic magnetic moment =   0.26753
     SPIN  1
     eigenvalues:
       0.992  0.992  0.997  0.997  0.997
     eigenvectors (columns):
       0.301 -0.954  0.012  0.001  0.000
       0.009 -0.002 -0.366 -0.730 -0.577
      -0.006 -0.007 -0.449  0.682 -0.577
       0.954  0.301 -0.001  0.012 -0.000
       0.003 -0.009 -0.815 -0.048  0.577
     occupation matrix ns (before diag.):
       0.992 -0.000 -0.000 -0.000 -0.000
      -0.000  0.997  0.000 -0.000 -0.000
      -0.000  0.000  0.997  0.000 -0.000
      -0.000 -0.000  0.000  0.992 -0.000
      -0.000 -0.000 -0.000 -0.000  0.997
     SPIN  2
     eigenvalues:
       0.862  0.862  0.995  0.995  0.995
     eigenvectors (columns):
       0.430  0.903 -0.009  0.000  0.000
      -0.007 -0.001 -0.372  0.727  0.577
       0.004 -0.006 -0.444 -0.685  0.577
       0.903 -0.430  0.000  0.009  0.000
      -0.003 -0.006 -0.815  0.042 -0.577
     occupation matrix ns (before diag.):
       0.862  0.000  0.000 -0.000  0.001
       0.000  0.995  0.000  0.001 -0.000
       0.000  0.000  0.995 -0.001 -0.000
      -0.000  0.001 -0.001  0.862 -0.000
       0.001 -0.000 -0.000 -0.000  0.995
     --------------------- ATOM    4 ----------------------
     Tr[ns] (up, down, total) =   4.70712  4.97645  9.68357
     Atomic magnetic moment =  -0.26933
     SPIN  1
     eigenvalues:
       0.861  0.861  0.995  0.995  0.995
     eigenvectors (columns):
       0.391  0.920 -0.008  0.000  0.000
      -0.007 -0.001 -0.394  0.715  0.577
       0.004 -0.006 -0.422 -0.699  0.577
       0.920 -0.391  0.000  0.008  0.000
      -0.003 -0.006 -0.816  0.016 -0.577
     occupation matrix ns (before diag.):
       0.861  0.000  0.000 -0.000  0.001
       0.000  0.995  0.000  0.001 -0.000
       0.000  0.000  0.995 -0.001 -0.000
      -0.000  0.001 -0.001  0.861 -0.000
       0.001 -0.000 -0.000 -0.000  0.995
     SPIN  2
     eigenvalues:
       0.992  0.992  0.997  0.997  0.997
     eigenvectors (columns):
      -0.328 -0.945  0.011 -0.001  0.000
      -0.009 -0.002 -0.348  0.738 -0.577
       0.006 -0.007 -0.465 -0.671 -0.577
      -0.945  0.328 -0.001 -0.011 -0.000
      -0.003 -0.008 -0.814  0.068  0.577
     occupation matrix ns (before diag.):
       0.992 -0.000 -0.000 -0.000 -0.000
      -0.000  0.997  0.000 -0.000 -0.000
      -0.000  0.000  0.997  0.000 -0.000
      -0.000 -0.000  0.000  0.992 -0.000
      -0.000 -0.000 -0.000 -0.000  0.997

     Number of occupied Hubbard levels =   19.3689

     HUBBARD ENERGY =    0.5019  (Ry)

     total cpu time spent up to now is      152.6 secs

     total energy              =    -748.75757527 Ry
     estimated scf accuracy    <      10.19646476 Ry

     total magnetization       =    -0.00 Bohr mag/cell
     absolute magnetization    =     1.00 Bohr mag/cell

     iteration #  4     ecut=    50.00 Ry     beta= 0.70
     Davidson diagonalization with overlap

---- Real-time Memory Report at c_bands before calling an iterative solver
           398 MiB given to the printing process from OS
             0 MiB allocation reported by mallinfo(arena+hblkhd)
           285 MiB available memory on the node where the printing process lives
------------------
     ethr =  1.00E-02,  avg # of iterations =  2.2

     Hubbard parameters (eV):
     U(  2) =  4.6000
     U(  3) =  4.6000

     ================= HUBBARD OCCUPATIONS ================
     --------------------- ATOM    3 ----------------------
     Tr[ns] (up, down, total) =   4.93855  3.29812  8.23667
     Atomic magnetic moment =   1.64044
     SPIN  1
     eigenvalues:
       0.985  0.985  0.989  0.989  0.989
     eigenvectors (columns):
      -0.433 -0.901  0.000 -0.030 -0.002
      -0.025 -0.002 -0.577  0.362  0.732
       0.014 -0.021 -0.577  0.453 -0.679
      -0.901  0.433 -0.000  0.002 -0.030
      -0.011 -0.022  0.577  0.814  0.053
     occupation matrix ns (before diag.):
       0.985 -0.000 -0.000 -0.000 -0.000
      -0.000  0.989 -0.000 -0.000  0.000
      -0.000 -0.000  0.989  0.000  0.000
      -0.000 -0.000  0.000  0.985 -0.000
      -0.000  0.000  0.000 -0.000  0.989
     SPIN  2
     eigenvalues:
       0.188  0.188  0.974  0.974  0.974
     eigenvectors (columns):
      -0.504 -0.864 -0.011  0.001 -0.000
       0.009 -0.000 -0.367  0.729 -0.577
      -0.004  0.008 -0.448 -0.682 -0.577
      -0.864  0.504  0.001  0.011 -0.000
       0.004  0.008 -0.815  0.047  0.577
     occupation matrix ns (before diag.):
       0.188  0.003  0.003 -0.000  0.007
       0.003  0.974  0.000  0.006 -0.000
       0.003  0.000  0.974 -0.006 -0.000
      -0.000  0.006 -0.006  0.188 -0.000
       0.007 -0.000 -0.000 -0.000  0.974
     --------------------- ATOM    4 ----------------------
     Tr[ns] (up, down, total) =   3.29997  4.93922  8.23919
     Atomic magnetic moment =  -1.63925
     SPIN  1
     eigenvalues:
       0.189  0.189  0.974  0.974  0.974
     eigenvectors (columns):
       0.553 -0.833 -0.010  0.001  0.000
      -0.008 -0.001 -0.354  0.736  0.577
       0.004  0.007 -0.461 -0.674  0.577
       0.833  0.553  0.001  0.010  0.000
      -0.005  0.007 -0.814  0.062 -0.577
     occupation matrix ns (before diag.):
       0.189  0.003  0.003 -0.000  0.007
       0.003  0.974  0.000  0.006 -0.000
       0.003  0.000  0.974 -0.006 -0.000
      -0.000  0.006 -0.006  0.189 -0.000
       0.007 -0.000 -0.000 -0.000  0.974
     SPIN  2
     eigenvalues:
       0.985  0.985  0.989  0.990  0.990
     eigenvectors (columns):
      -0.406 -0.913  0.000 -0.031 -0.002
      -0.025 -0.003 -0.577  0.349  0.738
       0.015 -0.020 -0.577  0.464 -0.671
      -0.913  0.406 -0.000  0.002 -0.031
      -0.010 -0.023  0.577  0.813  0.066
     occupation matrix ns (before diag.):
       0.985 -0.000 -0.000 -0.000 -0.000
      -0.000  0.989 -0.000 -0.000  0.000
      -0.000 -0.000  0.989  0.000  0.000
      -0.000 -0.000  0.000  0.985 -0.000
      -0.000  0.000  0.000 -0.000  0.989

     Number of occupied Hubbard levels =   16.4759

     HUBBARD ENERGY =    0.3112  (Ry)

     total cpu time spent up to now is      185.0 secs

     total energy              =    -750.65177567 Ry
     estimated scf accuracy    <       0.98705268 Ry

     total magnetization       =    -0.00 Bohr mag/cell
     absolute magnetization    =     3.62 Bohr mag/cell

     iteration #  5     ecut=    50.00 Ry     beta= 0.70
     Davidson diagonalization with overlap

---- Real-time Memory Report at c_bands before calling an iterative solver
           399 MiB given to the printing process from OS
             0 MiB allocation reported by mallinfo(arena+hblkhd)
           285 MiB available memory on the node where the printing process lives
------------------
     ethr =  2.06E-03,  avg # of iterations =  2.6

     Hubbard parameters (eV):
     U(  2) =  4.6000
     U(  3) =  4.6000

     ================= HUBBARD OCCUPATIONS ================
     --------------------- ATOM    3 ----------------------
     Tr[ns] (up, down, total) =   4.97662  3.66128  8.63790
     Atomic magnetic moment =   1.31534
     SPIN  1
     eigenvalues:
       0.992  0.992  0.998  0.998  0.998
     eigenvectors (columns):
       0.317 -0.949  0.006  0.000  0.000
       0.005 -0.001 -0.395 -0.714 -0.577
      -0.003 -0.004 -0.421  0.700 -0.577
       0.949  0.317 -0.000  0.006 -0.000
       0.002 -0.005 -0.816 -0.015  0.577
     occupation matrix ns (before diag.):
       0.992 -0.000 -0.000 -0.000 -0.000
      -0.000  0.998  0.000 -0.000 -0.000
      -0.000  0.000  0.998  0.000 -0.000
      -0.000 -0.000  0.000  0.992 -0.000
      -0.000 -0.000 -0.000 -0.000  0.998
     SPIN  2
     eigenvalues:
       0.341  0.341  0.993  0.993  0.993
     eigenvectors (columns):
       0.297  0.955 -0.007  0.000  0.000
      -0.006 -0.001 -0.407  0.708  0.577
       0.004 -0.004 -0.409 -0.707  0.577
       0.955 -0.297  0.000  0.007  0.000
      -0.002 -0.005 -0.816  0.001 -0.577
     occupation matrix ns (before diag.):
       0.341  0.002  0.002 -0.000  0.004
       0.002  0.993  0.000  0.003 -0.000
       0.002  0.000  0.993 -0.003 -0.000
      -0.000  0.003 -0.003  0.341 -0.000
       0.004 -0.000 -0.000 -0.000  0.993
     --------------------- ATOM    4 ----------------------
     Tr[ns] (up, down, total) =   3.65129  4.97553  8.62682
     Atomic magnetic moment =  -1.32424
     SPIN  1
     eigenvalues:
       0.336  0.336  0.993  0.993  0.993
     eigenvectors (columns):
       0.499  0.867 -0.007  0.000  0.000
      -0.005 -0.000 -0.406  0.708  0.577
       0.003 -0.005 -0.410 -0.706  0.577
       0.867 -0.499  0.000  0.007  0.000
      -0.003 -0.005 -0.816  0.002 -0.577
     occupation matrix ns (before diag.):
       0.336  0.002  0.002 -0.000  0.004
       0.002  0.993  0.000  0.003 -0.000
       0.002  0.000  0.993 -0.003 -0.000
      -0.000  0.003 -0.003  0.336 -0.000
       0.004 -0.000 -0.000 -0.000  0.993
     SPIN  2
     eigenvalues:
       0.992  0.992  0.997  0.997  0.997
     eigenvectors (columns):
      -0.360 -0.933 -0.005  0.000 -0.000
      -0.004 -0.001  0.381 -0.722  0.577
       0.003 -0.003  0.435  0.691  0.577
      -0.933  0.360  0.000  0.005  0.000
      -0.002 -0.004  0.816 -0.031 -0.577
     occupation matrix ns (before diag.):
       0.992 -0.000 -0.000 -0.000 -0.000
      -0.000  0.997  0.000 -0.000 -0.000
      -0.000  0.000  0.997  0.000 -0.000
      -0.000 -0.000  0.000  0.992 -0.000
      -0.000 -0.000 -0.000 -0.000  0.997

     Number of occupied Hubbard levels =   17.2647

     HUBBARD ENERGY =    0.1619  (Ry)

     total cpu time spent up to now is      222.6 secs

     total energy              =    -750.81639807 Ry
     estimated scf accuracy    <       0.21100257 Ry

     total magnetization       =     0.00 Bohr mag/cell
     absolute magnetization    =     3.13 Bohr mag/cell

     iteration #  6     ecut=    50.00 Ry     beta= 0.70
     Davidson diagonalization with overlap

---- Real-time Memory Report at c_bands before calling an iterative solver
           400 MiB given to the printing process from OS
             0 MiB allocation reported by mallinfo(arena+hblkhd)
           284 MiB available memory on the node where the printing process lives
------------------
     ethr =  4.40E-04,  avg # of iterations =  3.5

     Hubbard parameters (eV):
     U(  2) =  4.6000
     U(  3) =  4.6000

     ================= HUBBARD OCCUPATIONS ================
     --------------------- ATOM    3 ----------------------
     Tr[ns] (up, down, total) =   4.96753  3.36544  8.33296
     Atomic magnetic moment =   1.60209
     SPIN  1
     eigenvalues:
       0.992  0.992  0.994  0.994  0.994
     eigenvectors (columns):
       0.301  0.953  0.000  0.033  0.001
       0.026  0.006  0.577 -0.388 -0.718
      -0.018  0.020  0.577 -0.428  0.695
       0.953 -0.301  0.000 -0.001  0.033
       0.008  0.026 -0.577 -0.816 -0.023
     occupation matrix ns (before diag.):
       0.992 -0.000 -0.000 -0.000 -0.000
      -0.000  0.994 -0.000 -0.000  0.000
      -0.000 -0.000  0.994  0.000  0.000
      -0.000 -0.000  0.000  0.992 -0.000
      -0.000  0.000  0.000 -0.000  0.994
     SPIN  2
     eigenvalues:
       0.198  0.198  0.990  0.990  0.990
     eigenvectors (columns):
       0.388  0.922 -0.005  0.000  0.000
      -0.004 -0.000 -0.399  0.713  0.577
       0.002 -0.003 -0.418 -0.702  0.577
       0.922 -0.388  0.000  0.005  0.000
      -0.001 -0.003 -0.816  0.011 -0.577
     occupation matrix ns (before diag.):
       0.198  0.001  0.001 -0.000  0.003
       0.001  0.990  0.000  0.003 -0.000
       0.001  0.000  0.990 -0.003 -0.000
      -0.000  0.003 -0.003  0.198 -0.000
       0.003 -0.000 -0.000 -0.000  0.990
     --------------------- ATOM    4 ----------------------
     Tr[ns] (up, down, total) =   3.38957  4.97237  8.36194
     Atomic magnetic moment =  -1.58279
     SPIN  1
     eigenvalues:
       0.209  0.209  0.990  0.990  0.990
     eigenvectors (columns):
      -0.420 -0.908  0.005  0.000 -0.000
       0.004  0.000  0.443 -0.686 -0.577
      -0.002  0.003  0.372  0.727 -0.577
      -0.908  0.420  0.000 -0.005 -0.000
       0.002  0.003  0.815  0.041  0.577
     occupation matrix ns (before diag.):
       0.209  0.001  0.001 -0.000  0.003
       0.001  0.990  0.000  0.003 -0.000
       0.001  0.000  0.990 -0.003 -0.000
      -0.000  0.003 -0.003  0.209 -0.000
       0.003 -0.000 -0.000 -0.000  0.990
     SPIN  2
     eigenvalues:
       0.994  0.994  0.995  0.995  0.995
     eigenvectors (columns):
       0.360  0.931  0.000  0.053  0.010
       0.044  0.007  0.577 -0.265 -0.771
      -0.028  0.034  0.577 -0.536  0.615
       0.931 -0.360  0.000 -0.010  0.053
       0.016  0.041 -0.577 -0.800 -0.157
     occupation matrix ns (before diag.):
       0.994 -0.000 -0.000 -0.000 -0.000
      -0.000  0.995  0.000 -0.000 -0.000
      -0.000  0.000  0.995  0.000 -0.000
      -0.000 -0.000  0.000  0.994 -0.000
      -0.000 -0.000 -0.000 -0.000  0.995

     Number of occupied Hubbard levels =   16.6949

     HUBBARD ENERGY =    0.1548  (Ry)

     total cpu time spent up to now is      259.2 secs

     total energy              =    -750.87107038 Ry
     estimated scf accuracy    <       0.09556352 Ry

     total magnetization       =    -0.00 Bohr mag/cell
     absolute magnetization    =     3.55 Bohr mag/cell

     iteration #  7     ecut=    50.00 Ry     beta= 0.70
     Davidson diagonalization with overlap

---- Real-time Memory Report at c_bands before calling an iterative solver
           400 MiB given to the printing process from OS
             0 MiB allocation reported by mallinfo(arena+hblkhd)
           283 MiB available memory on the node where the printing process lives
------------------
     ethr =  1.99E-04,  avg # of iterations =  2.2

     Hubbard parameters (eV):
     U(  2) =  4.6000
     U(  3) =  4.6000

     ================= HUBBARD OCCUPATIONS ================
     --------------------- ATOM    3 ----------------------
     Tr[ns] (up, down, total) =   4.97596  3.45230  8.42826
     Atomic magnetic moment =   1.52366
     SPIN  1
     eigenvalues:
       0.994  0.994  0.996  0.996  0.996
     eigenvectors (columns):
       0.341 -0.940  0.028  0.002  0.000
       0.022 -0.004 -0.349 -0.738 -0.577
      -0.015 -0.017 -0.465  0.671 -0.577
       0.940  0.341 -0.002  0.028 -0.000
       0.008 -0.021 -0.813 -0.067  0.577
     occupation matrix ns (before diag.):
       0.994 -0.000 -0.000 -0.000 -0.000
      -0.000  0.996  0.000 -0.000 -0.000
      -0.000  0.000  0.996  0.000 -0.000
      -0.000 -0.000  0.000  0.994 -0.000
      -0.000 -0.000 -0.000 -0.000  0.996
     SPIN  2
     eigenvalues:
       0.239  0.239  0.992  0.992  0.992
     eigenvectors (columns):
       0.315 -0.949 -0.004 -0.000 -0.000
      -0.003  0.001 -0.415  0.703 -0.577
       0.002  0.002 -0.401 -0.711 -0.577
       0.949  0.315 -0.000  0.004 -0.000
      -0.001  0.003 -0.816 -0.008  0.577
     occupation matrix ns (before diag.):
       0.239  0.001  0.001 -0.000  0.002
       0.001  0.992  0.000  0.002 -0.000
       0.001  0.000  0.992 -0.002 -0.000
      -0.000  0.002 -0.002  0.239 -0.000
       0.002 -0.000 -0.000 -0.000  0.992
     --------------------- ATOM    4 ----------------------
     Tr[ns] (up, down, total) =   3.42510  4.97209  8.39719
     Atomic magnetic moment =  -1.54700
     SPIN  1
     eigenvalues:
       0.226  0.226  0.991  0.991  0.991
     eigenvectors (columns):
       0.414 -0.910 -0.004  0.000 -0.000
      -0.003  0.000 -0.381  0.722 -0.577
       0.002  0.002 -0.435 -0.691 -0.577
       0.910  0.414  0.000  0.004 -0.000
      -0.001  0.003 -0.816  0.031  0.577
     occupation matrix ns (before diag.):
       0.226  0.001  0.001 -0.000  0.002
       0.001  0.991  0.000  0.002 -0.000
       0.001  0.000  0.991 -0.002 -0.000
      -0.000  0.002 -0.002  0.226 -0.000
       0.002 -0.000 -0.000 -0.000  0.991
     SPIN  2
     eigenvalues:
       0.993  0.993  0.996  0.996  0.996
     eigenvectors (columns):
      -0.445 -0.895 -0.018  0.002 -0.000
      -0.015 -0.001  0.344 -0.740  0.577
       0.008 -0.012  0.469  0.668  0.577
      -0.895  0.445  0.002  0.018  0.000
      -0.007 -0.013  0.813 -0.072 -0.577
     occupation matrix ns (before diag.):
       0.993 -0.000 -0.000 -0.000 -0.000
      -0.000  0.996  0.000 -0.000 -0.000
      -0.000  0.000  0.996  0.000 -0.000
      -0.000 -0.000  0.000  0.993 -0.000
      -0.000 -0.000 -0.000 -0.000  0.996

     Number of occupied Hubbard levels =   16.8254

     HUBBARD ENERGY =    0.1510  (Ry)

     total cpu time spent up to now is      291.5 secs

     total energy              =    -750.87947439 Ry
     estimated scf accuracy    <       0.00572648 Ry

     total magnetization       =     0.00 Bohr mag/cell
     absolute magnetization    =     3.48 Bohr mag/cell

     iteration #  8     ecut=    50.00 Ry     beta= 0.70
     Davidson diagonalization with overlap

---- Real-time Memory Report at c_bands before calling an iterative solver
           401 MiB given to the printing process from OS
             0 MiB allocation reported by mallinfo(arena+hblkhd)
           283 MiB available memory on the node where the printing process lives
------------------
     ethr =  1.19E-05,  avg # of iterations =  3.7

     Hubbard parameters (eV):
     U(  2) =  4.6000
     U(  3) =  4.6000

     ================= HUBBARD OCCUPATIONS ================
     --------------------- ATOM    3 ----------------------
     Tr[ns] (up, down, total) =   4.97413  3.43600  8.41013
     Atomic magnetic moment =   1.53813
     SPIN  1
     eigenvalues:
       0.993  0.993  0.996  0.996  0.996
     eigenvectors (columns):
      -0.365 -0.931  0.019 -0.002 -0.000
      -0.015 -0.002 -0.330  0.747  0.577
       0.010 -0.012 -0.482 -0.659  0.577
      -0.931  0.365 -0.002 -0.019  0.000
      -0.006 -0.015 -0.812  0.087 -0.577
     occupation matrix ns (before diag.):
       0.993 -0.000 -0.000 -0.000 -0.000
      -0.000  0.996  0.000 -0.000 -0.000
      -0.000  0.000  0.996  0.000 -0.000
      -0.000 -0.000  0.000  0.993 -0.000
      -0.000 -0.000 -0.000 -0.000  0.996
     SPIN  2
     eigenvalues:
       0.231  0.231  0.992  0.992  0.992
     eigenvectors (columns):
      -0.353 -0.936 -0.004  0.000 -0.000
       0.003  0.000 -0.354  0.736 -0.577
      -0.002  0.002 -0.460 -0.675 -0.577
      -0.936  0.353  0.000  0.004 -0.000
       0.001  0.003 -0.814  0.061  0.577
     occupation matrix ns (before diag.):
       0.231  0.001  0.001 -0.000  0.002
       0.001  0.992  0.000  0.002 -0.000
       0.001  0.000  0.992 -0.002 -0.000
      -0.000  0.002 -0.002  0.231 -0.000
       0.002 -0.000 -0.000 -0.000  0.992
     --------------------- ATOM    4 ----------------------
     Tr[ns] (up, down, total) =   3.44597  4.97574  8.42171
     Atomic magnetic moment =  -1.52978
     SPIN  1
     eigenvalues:
       0.235  0.235  0.992  0.992  0.992
     eigenvectors (columns):
       0.436  0.900 -0.004  0.000  0.000
      -0.003 -0.000 -0.381  0.722  0.577
       0.002 -0.002 -0.435 -0.691  0.577
       0.900 -0.436  0.000  0.004  0.000
      -0.001 -0.003 -0.816  0.031 -0.577
     occupation matrix ns (before diag.):
       0.235  0.001  0.001 -0.000  0.002
       0.001  0.992  0.000  0.002 -0.000
       0.001  0.000  0.992 -0.002 -0.000
      -0.000  0.002 -0.002  0.235 -0.000
       0.002 -0.000 -0.000 -0.000  0.992
     SPIN  2
     eigenvalues:
       0.994  0.994  0.996  0.996  0.996
     eigenvectors (columns):
      -0.341 -0.940 -0.022  0.003 -0.000
      -0.018 -0.003  0.320 -0.751  0.577
       0.012 -0.014  0.490  0.653  0.577
      -0.940  0.341  0.003  0.022  0.000
      -0.006 -0.017  0.810 -0.098 -0.577
     occupation matrix ns (before diag.):
       0.994 -0.000 -0.000 -0.000 -0.000
      -0.000  0.996  0.000 -0.000 -0.000
      -0.000  0.000  0.996  0.000 -0.000
      -0.000 -0.000  0.000  0.994 -0.000
      -0.000 -0.000 -0.000 -0.000  0.996

     Number of occupied Hubbard levels =   16.8318

     HUBBARD ENERGY =    0.1397  (Ry)

     total cpu time spent up to now is      326.6 secs

     total energy              =    -750.88007533 Ry
     estimated scf accuracy    <       0.00241972 Ry

     total magnetization       =     0.00 Bohr mag/cell
     absolute magnetization    =     3.48 Bohr mag/cell

     iteration #  9     ecut=    50.00 Ry     beta= 0.70
     Davidson diagonalization with overlap

---- Real-time Memory Report at c_bands before calling an iterative solver
           402 MiB given to the printing process from OS
             0 MiB allocation reported by mallinfo(arena+hblkhd)
           282 MiB available memory on the node where the printing process lives
------------------
     ethr =  5.04E-06,  avg # of iterations =  1.8

     Hubbard parameters (eV):
     U(  2) =  4.6000
     U(  3) =  4.6000

     ================= HUBBARD OCCUPATIONS ================
     --------------------- ATOM    3 ----------------------
     Tr[ns] (up, down, total) =   4.97623  3.43915  8.41537
     Atomic magnetic moment =   1.53708
     SPIN  1
     eigenvalues:
       0.994  0.994  0.996  0.996  0.996
     eigenvectors (columns):
      -0.424 -0.905 -0.019  0.001 -0.000
      -0.015 -0.001  0.384 -0.721  0.577
       0.009 -0.012  0.432  0.693  0.577
      -0.905  0.424  0.001  0.019  0.000
      -0.006 -0.014  0.816 -0.028 -0.577
     occupation matrix ns (before diag.):
       0.994 -0.000 -0.000 -0.000 -0.000
      -0.000  0.996  0.000 -0.000 -0.000
      -0.000  0.000  0.996  0.000 -0.000
      -0.000 -0.000  0.000  0.994 -0.000
      -0.000 -0.000 -0.000 -0.000  0.996
     SPIN  2
     eigenvalues:
       0.232  0.232  0.992  0.992  0.992
     eigenvectors (columns):
      -0.537 -0.844 -0.003  0.000  0.000
       0.002 -0.000 -0.352  0.737  0.577
      -0.001  0.002 -0.462 -0.673  0.577
      -0.844  0.537  0.000  0.003  0.000
       0.001  0.002 -0.814  0.064 -0.577
     occupation matrix ns (before diag.):
       0.232  0.001  0.001 -0.000  0.002
       0.001  0.992  0.000  0.001 -0.000
       0.001  0.000  0.992 -0.001 -0.000
      -0.000  0.001 -0.001  0.232 -0.000
       0.002 -0.000 -0.000 -0.000  0.992
     --------------------- ATOM    4 ----------------------
     Tr[ns] (up, down, total) =   3.43854  4.97623  8.41477
     Atomic magnetic moment =  -1.53769
     SPIN  1
     eigenvalues:
       0.231  0.231  0.992  0.992  0.992
     eigenvectors (columns):
       0.403  0.915 -0.002 -0.000  0.000
      -0.002 -0.000 -0.424  0.698  0.577
       0.001 -0.002 -0.392 -0.716  0.577
       0.915 -0.403 -0.000  0.002  0.000
      -0.001 -0.002 -0.816 -0.018 -0.577
     occupation matrix ns (before diag.):
       0.231  0.001  0.001 -0.000  0.002
       0.001  0.992  0.000  0.001 -0.000
       0.001  0.000  0.992 -0.001 -0.000
      -0.000  0.001 -0.001  0.231 -0.000
       0.002 -0.000 -0.000 -0.000  0.992
     SPIN  2
     eigenvalues:
       0.994  0.994  0.996  0.996  0.996
     eigenvectors (columns):
       0.492 -0.870  0.018  0.001  0.000
       0.015 -0.000 -0.372 -0.727 -0.577
      -0.007 -0.013 -0.444  0.685 -0.577
       0.870  0.492 -0.001  0.018 -0.000
       0.007 -0.013 -0.815 -0.042  0.577
     occupation matrix ns (before diag.):
       0.994 -0.000 -0.000 -0.000 -0.000
      -0.000  0.996  0.000 -0.000 -0.000
      -0.000  0.000  0.996  0.000 -0.000
      -0.000 -0.000  0.000  0.994 -0.000
      -0.000 -0.000 -0.000 -0.000  0.996

     Number of occupied Hubbard levels =   16.8301

     HUBBARD ENERGY =    0.1377  (Ry)

     total cpu time spent up to now is      358.1 secs

     total energy              =    -750.88009804 Ry
     estimated scf accuracy    <       0.00052744 Ry

     total magnetization       =    -0.00 Bohr mag/cell
     absolute magnetization    =     3.49 Bohr mag/cell

     iteration # 10     ecut=    50.00 Ry     beta= 0.70
     Davidson diagonalization with overlap

---- Real-time Memory Report at c_bands before calling an iterative solver
           403 MiB given to the printing process from OS
             0 MiB allocation reported by mallinfo(arena+hblkhd)
           281 MiB available memory on the node where the printing process lives
------------------
     ethr =  1.10E-06,  avg # of iterations =  2.1

     Hubbard parameters (eV):
     U(  2) =  4.6000
     U(  3) =  4.6000

     ================= HUBBARD OCCUPATIONS ================
     --------------------- ATOM    3 ----------------------
     Tr[ns] (up, down, total) =   4.97695  3.44333  8.42028
     Atomic magnetic moment =   1.53362
     SPIN  1
     eigenvalues:
       0.994  0.994  0.996  0.996  0.996
     eigenvectors (columns):
      -0.453 -0.891 -0.015  0.002 -0.000
      -0.013 -0.001  0.330 -0.747  0.577
       0.007 -0.011  0.481  0.659  0.577
      -0.891  0.453  0.002  0.015  0.000
      -0.006 -0.011  0.812 -0.087 -0.577
     occupation matrix ns (before diag.):
       0.994 -0.000 -0.000 -0.000 -0.000
      -0.000  0.996  0.000 -0.000 -0.000
      -0.000  0.000  0.996  0.000 -0.000
      -0.000 -0.000  0.000  0.994 -0.000
      -0.000 -0.000 -0.000 -0.000  0.996
     SPIN  2
     eigenvalues:
       0.233  0.233  0.992  0.992  0.992
     eigenvectors (columns):
       0.490  0.872 -0.002  0.000  0.000
      -0.002 -0.000 -0.368  0.729  0.577
       0.001 -0.001 -0.448 -0.683  0.577
       0.872 -0.490  0.000  0.002  0.000
      -0.001 -0.001 -0.815  0.046 -0.577
     occupation matrix ns (before diag.):
       0.233  0.001  0.001 -0.000  0.001
       0.001  0.992  0.000  0.001 -0.000
       0.001  0.000  0.992 -0.001 -0.000
      -0.000  0.001 -0.001  0.233 -0.000
       0.001 -0.000 -0.000 -0.000  0.992
     --------------------- ATOM    4 ----------------------
     Tr[ns] (up, down, total) =   3.44336  4.97700  8.42036
     Atomic magnetic moment =  -1.53365
     SPIN  1
     eigenvalues:
       0.233  0.233  0.992  0.992  0.992
     eigenvectors (columns):
       0.464  0.886 -0.002 -0.000  0.000
      -0.001 -0.000 -0.434  0.692  0.577
       0.001 -0.001 -0.382 -0.722  0.577
       0.886 -0.464 -0.000  0.002  0.000
      -0.001 -0.001 -0.816 -0.030 -0.577
     occupation matrix ns (before diag.):
       0.233  0.001  0.001 -0.000  0.001
       0.001  0.992  0.000  0.001 -0.000
       0.001  0.000  0.992 -0.001 -0.000
      -0.000  0.001 -0.001  0.233 -0.000
       0.001 -0.000 -0.000 -0.000  0.992
     SPIN  2
     eigenvalues:
       0.994  0.994  0.996  0.996  0.996
     eigenvectors (columns):
       0.424 -0.905  0.015  0.001  0.000
       0.012 -0.001 -0.384 -0.720 -0.577
      -0.007 -0.010 -0.432  0.693 -0.577
       0.905  0.424 -0.001  0.015 -0.000
       0.005 -0.011 -0.816 -0.028  0.577
     occupation matrix ns (before diag.):
       0.994 -0.000 -0.000 -0.000 -0.000
      -0.000  0.996  0.000 -0.000 -0.000
      -0.000  0.000  0.996  0.000 -0.000
      -0.000 -0.000  0.000  0.994 -0.000
      -0.000 -0.000 -0.000 -0.000  0.996

     Number of occupied Hubbard levels =   16.8406

     HUBBARD ENERGY =    0.1363  (Ry)

     total cpu time spent up to now is      394.1 secs

     total energy              =    -750.88018788 Ry
     estimated scf accuracy    <       0.00000485 Ry

     total magnetization       =    -0.00 Bohr mag/cell
     absolute magnetization    =     3.48 Bohr mag/cell

     iteration # 11     ecut=    50.00 Ry     beta= 0.70
     Davidson diagonalization with overlap

---- Real-time Memory Report at c_bands before calling an iterative solver
           403 MiB given to the printing process from OS
             0 MiB allocation reported by mallinfo(arena+hblkhd)
           281 MiB available memory on the node where the printing process lives
------------------
     ethr =  1.01E-08,  avg # of iterations =  2.3

     Hubbard parameters (eV):
     U(  2) =  4.6000
     U(  3) =  4.6000

     ================= HUBBARD OCCUPATIONS ================
     --------------------- ATOM    3 ----------------------
     Tr[ns] (up, down, total) =   4.97711  3.44276  8.41987
     Atomic magnetic moment =   1.53435
     SPIN  1
     eigenvalues:
       0.994  0.994  0.996  0.996  0.996
     eigenvectors (columns):
      -0.376 -0.926 -0.014 -0.000 -0.000
      -0.012 -0.002  0.419 -0.700  0.577
       0.007 -0.009  0.397  0.713  0.577
      -0.926  0.376 -0.000  0.014  0.000
      -0.004 -0.011  0.816  0.013 -0.577
     occupation matrix ns (before diag.):
       0.994 -0.000 -0.000 -0.000 -0.000
      -0.000  0.996  0.000 -0.000 -0.000
      -0.000  0.000  0.996  0.000 -0.000
      -0.000 -0.000  0.000  0.994 -0.000
      -0.000 -0.000 -0.000 -0.000  0.996
     SPIN  2
     eigenvalues:
       0.233  0.233  0.992  0.992  0.992
     eigenvectors (columns):
       0.397 -0.918 -0.001  0.000 -0.000
      -0.001  0.000 -0.362  0.732 -0.577
       0.001  0.001 -0.452 -0.680 -0.577
       0.918  0.397  0.000  0.001 -0.000
      -0.000  0.001 -0.815  0.052  0.577
     occupation matrix ns (before diag.):
       0.233  0.000  0.000 -0.000  0.001
       0.000  0.992  0.000  0.001 -0.000
       0.000  0.000  0.992 -0.001 -0.000
      -0.000  0.001 -0.001  0.233 -0.000
       0.001 -0.000 -0.000 -0.000  0.992
     --------------------- ATOM    4 ----------------------
     Tr[ns] (up, down, total) =   3.44285  4.97712  8.41997
     Atomic magnetic moment =  -1.53428
     SPIN  1
     eigenvalues:
       0.233  0.233  0.992  0.992  0.992
     eigenvectors (columns):
       0.456  0.890 -0.001 -0.000  0.000
      -0.001 -0.000 -0.432  0.693  0.577
       0.001 -0.001 -0.384 -0.721  0.577
       0.890 -0.456 -0.000  0.001  0.000
      -0.001 -0.001 -0.816 -0.028 -0.577
     occupation matrix ns (before diag.):
       0.233  0.000  0.000 -0.000  0.001
       0.000  0.992  0.000  0.001 -0.000
       0.000  0.000  0.992 -0.001 -0.000
      -0.000  0.001 -0.001  0.233 -0.000
       0.001 -0.000 -0.000 -0.000  0.992
     SPIN  2
     eigenvalues:
       0.994  0.994  0.996  0.996  0.996
     eigenvectors (columns):
      -0.365 -0.931 -0.014  0.002 -0.000
      -0.012 -0.002  0.314 -0.754  0.577
       0.007 -0.009  0.496  0.649  0.577
      -0.931  0.365  0.002  0.014  0.000
      -0.004 -0.011  0.810 -0.105 -0.577
     occupation matrix ns (before diag.):
       0.994 -0.000 -0.000 -0.000 -0.000
      -0.000  0.996  0.000 -0.000 -0.000
      -0.000  0.000  0.996  0.000 -0.000
      -0.000 -0.000  0.000  0.994 -0.000
      -0.000 -0.000 -0.000 -0.000  0.996

     Number of occupied Hubbard levels =   16.8398

     HUBBARD ENERGY =    0.1363  (Ry)

     total cpu time spent up to now is      433.9 secs

     total energy              =    -750.88018789 Ry
     estimated scf accuracy    <       0.00000919 Ry

     total magnetization       =     0.00 Bohr mag/cell
     absolute magnetization    =     3.49 Bohr mag/cell

     iteration # 12     ecut=    50.00 Ry     beta= 0.70
     Davidson diagonalization with overlap

---- Real-time Memory Report at c_bands before calling an iterative solver
           403 MiB given to the printing process from OS
             0 MiB allocation reported by mallinfo(arena+hblkhd)
           281 MiB available memory on the node where the printing process lives
------------------
     ethr =  1.01E-08,  avg # of iterations =  2.0

     Hubbard parameters (eV):
     U(  2) =  4.6000
     U(  3) =  4.6000

     ================= HUBBARD OCCUPATIONS ================
     --------------------- ATOM    3 ----------------------
     Tr[ns] (up, down, total) =   4.97706  3.44217  8.41924
     Atomic magnetic moment =   1.53489
     SPIN  1
     eigenvalues:
       0.994  0.994  0.996  0.996  0.996
     eigenvectors (columns):
      -0.410 -0.912 -0.014  0.000 -0.000
      -0.011 -0.001  0.397 -0.713  0.577
       0.007 -0.009  0.419  0.700  0.577
      -0.912  0.410  0.000  0.014  0.000
      -0.005 -0.010  0.816 -0.013 -0.577
     occupation matrix ns (before diag.):
       0.994 -0.000 -0.000 -0.000 -0.000
      -0.000  0.996  0.000 -0.000 -0.000
      -0.000  0.000  0.996  0.000 -0.000
      -0.000 -0.000  0.000  0.994 -0.000
      -0.000 -0.000 -0.000 -0.000  0.996
     SPIN  2
     eigenvalues:
       0.233  0.233  0.992  0.992  0.992
     eigenvectors (columns):
       0.496  0.868 -0.001  0.000  0.000
      -0.001 -0.000 -0.403  0.710  0.577
       0.001 -0.001 -0.413 -0.704  0.577
       0.868 -0.496  0.000  0.001  0.000
      -0.000 -0.001 -0.816  0.006 -0.577
     occupation matrix ns (before diag.):
       0.233  0.000  0.000 -0.000  0.001
       0.000  0.992  0.000  0.001 -0.000
       0.000  0.000  0.992 -0.001 -0.000
      -0.000  0.001 -0.001  0.233 -0.000
       0.001 -0.000 -0.000 -0.000  0.992
     --------------------- ATOM    4 ----------------------
     Tr[ns] (up, down, total) =   3.44213  4.97706  8.41919
     Atomic magnetic moment =  -1.53493
     SPIN  1
     eigenvalues:
       0.233  0.233  0.992  0.992  0.992
     eigenvectors (columns):
      -0.570 -0.821 -0.001  0.000 -0.000
       0.001 -0.000 -0.389  0.718 -0.577
      -0.000  0.001 -0.428 -0.696 -0.577
      -0.821  0.570  0.000  0.001 -0.000
       0.001  0.001 -0.816  0.023  0.577
     occupation matrix ns (before diag.):
       0.233  0.000  0.000 -0.000  0.001
       0.000  0.992  0.000  0.001 -0.000
       0.000  0.000  0.992 -0.001 -0.000
      -0.000  0.001 -0.001  0.233 -0.000
       0.001 -0.000 -0.000 -0.000  0.992
     SPIN  2
     eigenvalues:
       0.994  0.994  0.996  0.996  0.996
     eigenvectors (columns):
       0.433 -0.901  0.014  0.001  0.000
       0.011 -0.001 -0.382 -0.722 -0.577
      -0.006 -0.009 -0.434  0.692 -0.577
       0.901  0.433 -0.001  0.014 -0.000
       0.005 -0.010 -0.816 -0.030  0.577
     occupation matrix ns (before diag.):
       0.994 -0.000 -0.000 -0.000 -0.000
      -0.000  0.996  0.000 -0.000 -0.000
      -0.000  0.000  0.996  0.000 -0.000
      -0.000 -0.000  0.000  0.994 -0.000
      -0.000 -0.000 -0.000 -0.000  0.996

     Number of occupied Hubbard levels =   16.8384

     HUBBARD ENERGY =    0.1363  (Ry)

     total cpu time spent up to now is      468.0 secs

     total energy              =    -750.88018871 Ry
     estimated scf accuracy    <       0.00000051 Ry

     total magnetization       =     0.00 Bohr mag/cell
     absolute magnetization    =     3.49 Bohr mag/cell

     iteration # 13     ecut=    50.00 Ry     beta= 0.70
     Davidson diagonalization with overlap

---- Real-time Memory Report at c_bands before calling an iterative solver
           403 MiB given to the printing process from OS
             0 MiB allocation reported by mallinfo(arena+hblkhd)
           281 MiB available memory on the node where the printing process lives
------------------
     ethr =  1.06E-09,  avg # of iterations =  2.0

     Hubbard parameters (eV):
     U(  2) =  4.6000
     U(  3) =  4.6000

     ================= HUBBARD OCCUPATIONS ================
     --------------------- ATOM    3 ----------------------
     Tr[ns] (up, down, total) =   4.97704  3.44200  8.41904
     Atomic magnetic moment =   1.53503
     SPIN  1
     eigenvalues:
       0.994  0.994  0.996  0.996  0.996
     eigenvectors (columns):
      -0.406 -0.914 -0.013 -0.000 -0.000
      -0.011 -0.001  0.434 -0.691  0.577
       0.006 -0.009  0.381  0.722  0.577
      -0.914  0.406 -0.000  0.013  0.000
      -0.004 -0.010  0.816  0.031 -0.577
     occupation matrix ns (before diag.):
       0.994 -0.000 -0.000 -0.000 -0.000
      -0.000  0.996  0.000 -0.000 -0.000
      -0.000  0.000  0.996  0.000 -0.000
      -0.000 -0.000  0.000  0.994 -0.000
      -0.000 -0.000 -0.000 -0.000  0.996
     SPIN  2
     eigenvalues:
       0.233  0.233  0.992  0.992  0.992
     eigenvectors (columns):
       0.371  0.929 -0.001  0.000  0.000
      -0.001 -0.000 -0.399  0.713  0.577
       0.001 -0.001 -0.418 -0.701  0.577
       0.929 -0.371  0.000  0.001  0.000
      -0.000 -0.001 -0.816  0.011 -0.577
     occupation matrix ns (before diag.):
       0.233  0.000  0.000 -0.000  0.001
       0.000  0.992  0.000  0.001 -0.000
       0.000  0.000  0.992 -0.001 -0.000
      -0.000  0.001 -0.001  0.233 -0.000
       0.001 -0.000 -0.000 -0.000  0.992
     --------------------- ATOM    4 ----------------------
     Tr[ns] (up, down, total) =   3.44202  4.97704  8.41906
     Atomic magnetic moment =  -1.53502
     SPIN  1
     eigenvalues:
       0.233  0.233  0.992  0.992  0.992
     eigenvectors (columns):
       0.280 -0.960 -0.001  0.000 -0.000
      -0.001  0.000 -0.386  0.719 -0.577
       0.001  0.001 -0.430 -0.694 -0.577
       0.960  0.280  0.000  0.001 -0.000
      -0.000  0.001 -0.816  0.025  0.577
     occupation matrix ns (before diag.):
       0.233  0.000  0.000 -0.000  0.001
       0.000  0.992  0.000  0.001 -0.000
       0.000  0.000  0.992 -0.001 -0.000
      -0.000  0.001 -0.001  0.233 -0.000
       0.001 -0.000 -0.000 -0.000  0.992
     SPIN  2
     eigenvalues:
       0.994  0.994  0.996  0.996  0.996
     eigenvectors (columns):
      -0.359 -0.933 -0.013  0.000 -0.000
      -0.011 -0.002  0.384 -0.720  0.577
       0.007 -0.008  0.432  0.693  0.577
      -0.933  0.359  0.000  0.013  0.000
      -0.004 -0.010  0.816 -0.027 -0.577
     occupation matrix ns (before diag.):
       0.994 -0.000 -0.000 -0.000 -0.000
      -0.000  0.996  0.000 -0.000 -0.000
      -0.000  0.000  0.996  0.000 -0.000
      -0.000 -0.000  0.000  0.994 -0.000
      -0.000 -0.000 -0.000 -0.000  0.996

     Number of occupied Hubbard levels =   16.8381

     HUBBARD ENERGY =    0.1364  (Ry)

     total cpu time spent up to now is      502.0 secs

     total energy              =    -750.88018883 Ry
     estimated scf accuracy    <       0.00000006 Ry

     total magnetization       =     0.00 Bohr mag/cell
     absolute magnetization    =     3.49 Bohr mag/cell

     iteration # 14     ecut=    50.00 Ry     beta= 0.70
     Davidson diagonalization with overlap

---- Real-time Memory Report at c_bands before calling an iterative solver
           403 MiB given to the printing process from OS
             0 MiB allocation reported by mallinfo(arena+hblkhd)
           280 MiB available memory on the node where the printing process lives
------------------
     ethr =  1.17E-10,  avg # of iterations =  2.0

     Hubbard parameters (eV):
     U(  2) =  4.6000
     U(  3) =  4.6000

     ================= HUBBARD OCCUPATIONS ================
     --------------------- ATOM    3 ----------------------
     Tr[ns] (up, down, total) =   4.97704  3.44208  8.41912
     Atomic magnetic moment =   1.53496
     SPIN  1
     eigenvalues:
       0.994  0.994  0.996  0.996  0.996
     eigenvectors (columns):
      -0.428 -0.904 -0.013  0.001 -0.000
      -0.010 -0.001  0.378 -0.724  0.577
       0.006 -0.009  0.437  0.689  0.577
      -0.904  0.428  0.001  0.013  0.000
      -0.004 -0.009  0.816 -0.034 -0.577
     occupation matrix ns (before diag.):
       0.994 -0.000 -0.000 -0.000 -0.000
      -0.000  0.996  0.000 -0.000 -0.000
      -0.000  0.000  0.996  0.000 -0.000
      -0.000 -0.000  0.000  0.994 -0.000
      -0.000 -0.000 -0.000 -0.000  0.996
     SPIN  2
     eigenvalues:
       0.233  0.233  0.992  0.992  0.992
     eigenvectors (columns):
       0.310  0.951 -0.001  0.000  0.000
      -0.001 -0.000 -0.342  0.742  0.577
       0.000 -0.000 -0.471 -0.667  0.577
       0.951 -0.310  0.000  0.001  0.000
      -0.000 -0.001 -0.813  0.075 -0.577
     occupation matrix ns (before diag.):
       0.233  0.000  0.000 -0.000  0.001
       0.000  0.992  0.000  0.000 -0.000
       0.000  0.000  0.992 -0.000 -0.000
      -0.000  0.000 -0.000  0.233 -0.000
       0.001 -0.000 -0.000 -0.000  0.992
     --------------------- ATOM    4 ----------------------
     Tr[ns] (up, down, total) =   3.44208  4.97704  8.41912
     Atomic magnetic moment =  -1.53496
     SPIN  1
     eigenvalues:
       0.233  0.233  0.992  0.992  0.992
     eigenvectors (columns):
       0.556 -0.831 -0.001  0.000 -0.000
      -0.001 -0.000 -0.331  0.746 -0.577
       0.000  0.001 -0.481 -0.660 -0.577
       0.831  0.556  0.000  0.001 -0.000
      -0.000  0.001 -0.812  0.086  0.577
     occupation matrix ns (before diag.):
       0.233  0.000  0.000 -0.000  0.001
       0.000  0.992  0.000  0.000 -0.000
       0.000  0.000  0.992 -0.000 -0.000
      -0.000  0.000 -0.000  0.233 -0.000
       0.001 -0.000 -0.000 -0.000  0.992
     SPIN  2
     eigenvalues:
       0.994  0.994  0.996  0.996  0.996
     eigenvectors (columns):
      -0.420 -0.908 -0.013 -0.000 -0.000
      -0.010 -0.001  0.417 -0.702  0.577
       0.006 -0.008  0.400  0.712  0.577
      -0.908  0.420 -0.000  0.013  0.000
      -0.004 -0.009  0.816  0.010 -0.577
     occupation matrix ns (before diag.):
       0.994 -0.000 -0.000 -0.000 -0.000
      -0.000  0.996  0.000 -0.000 -0.000
      -0.000  0.000  0.996  0.000 -0.000
      -0.000 -0.000  0.000  0.994 -0.000
      -0.000 -0.000 -0.000 -0.000  0.996

     Number of occupied Hubbard levels =   16.8382

     HUBBARD ENERGY =    0.1364  (Ry)

     total cpu time spent up to now is      536.5 secs

     total energy              =    -750.88018889 Ry
     estimated scf accuracy    <          3.9E-09 Ry

     total magnetization       =     0.00 Bohr mag/cell
     absolute magnetization    =     3.49 Bohr mag/cell

     iteration # 15     ecut=    50.00 Ry     beta= 0.70
     Davidson diagonalization with overlap

---- Real-time Memory Report at c_bands before calling an iterative solver
           403 MiB given to the printing process from OS
             0 MiB allocation reported by mallinfo(arena+hblkhd)
           280 MiB available memory on the node where the printing process lives
------------------
     ethr =  8.07E-12,  avg # of iterations =  2.0

     Hubbard parameters (eV):
     U(  2) =  4.6000
     U(  3) =  4.6000

     ================= HUBBARD OCCUPATIONS ================
     --------------------- ATOM    3 ----------------------
     Tr[ns] (up, down, total) =   4.97704  3.44207  8.41911
     Atomic magnetic moment =   1.53497
     SPIN  1
     eigenvalues:
       0.994  0.994  0.996  0.996  0.996
     eigenvectors (columns):
      -0.467 -0.884 -0.013 -0.000 -0.000
      -0.010 -0.000  0.423 -0.698  0.577
       0.005 -0.009  0.393  0.715  0.577
      -0.884  0.467 -0.000  0.013  0.000
      -0.005 -0.009  0.816  0.017 -0.577
     occupation matrix ns (before diag.):
       0.994 -0.000 -0.000 -0.000 -0.000
      -0.000  0.996  0.000 -0.000 -0.000
      -0.000  0.000  0.996  0.000 -0.000
      -0.000 -0.000  0.000  0.994 -0.000
      -0.000 -0.000 -0.000 -0.000  0.996
     SPIN  2
     eigenvalues:
       0.233  0.233  0.992  0.992  0.992
     eigenvectors (columns):
       0.347  0.938  0.001  0.000 -0.000
      -0.001 -0.000  0.460 -0.674 -0.577
       0.000 -0.000  0.354  0.736 -0.577
       0.938 -0.347  0.000 -0.001 -0.000
      -0.000 -0.001  0.814  0.062  0.577
     occupation matrix ns (before diag.):
       0.233  0.000  0.000 -0.000  0.000
       0.000  0.992  0.000  0.000 -0.000
       0.000  0.000  0.992 -0.000 -0.000
      -0.000  0.000 -0.000  0.233 -0.000
       0.000 -0.000 -0.000 -0.000  0.992
     --------------------- ATOM    4 ----------------------
     Tr[ns] (up, down, total) =   3.44206  4.97704  8.41910
     Atomic magnetic moment =  -1.53497
     SPIN  1
     eigenvalues:
       0.233  0.233  0.992  0.992  0.992
     eigenvectors (columns):
       0.318 -0.948 -0.001  0.000 -0.000
      -0.001  0.000 -0.381  0.722 -0.577
       0.000  0.000 -0.435 -0.691 -0.577
       0.948  0.318  0.000  0.001 -0.000
      -0.000  0.001 -0.816  0.031  0.577
     occupation matrix ns (before diag.):
       0.233  0.000  0.000 -0.000  0.000
       0.000  0.992  0.000  0.000 -0.000
       0.000  0.000  0.992 -0.000 -0.000
      -0.000  0.000 -0.000  0.233 -0.000
       0.000 -0.000 -0.000 -0.000  0.992
     SPIN  2
     eigenvalues:
       0.994  0.994  0.996  0.996  0.996
     eigenvectors (columns):
      -0.463 -0.886 -0.013  0.000 -0.000
      -0.010 -0.000  0.402 -0.710  0.577
       0.006 -0.009  0.414  0.704  0.577
      -0.886  0.463  0.000  0.013  0.000
      -0.005 -0.009  0.816 -0.007 -0.577
     occupation matrix ns (before diag.):
       0.994 -0.000 -0.000 -0.000 -0.000
      -0.000  0.996  0.000 -0.000 -0.000
      -0.000  0.000  0.996  0.000 -0.000
      -0.000 -0.000  0.000  0.994 -0.000
      -0.000 -0.000 -0.000 -0.000  0.996

     Number of occupied Hubbard levels =   16.8382

     HUBBARD ENERGY =    0.1364  (Ry)

     total cpu time spent up to now is      571.4 secs

     total energy              =    -750.88018889 Ry
     estimated scf accuracy    <          1.7E-10 Ry

     total magnetization       =     0.00 Bohr mag/cell
     absolute magnetization    =     3.49 Bohr mag/cell

     iteration # 16     ecut=    50.00 Ry     beta= 0.70
     Davidson diagonalization with overlap

---- Real-time Memory Report at c_bands before calling an iterative solver
           403 MiB given to the printing process from OS
             0 MiB allocation reported by mallinfo(arena+hblkhd)
           280 MiB available memory on the node where the printing process lives
------------------
     ethr =  3.62E-13,  avg # of iterations =  2.0

     Hubbard parameters (eV):
     U(  2) =  4.6000
     U(  3) =  4.6000

     ================= HUBBARD OCCUPATIONS ================
     --------------------- ATOM    3 ----------------------
     Tr[ns] (up, down, total) =   4.97704  3.44207  8.41911
     Atomic magnetic moment =   1.53497
     SPIN  1
     eigenvalues:
       0.994  0.994  0.996  0.996  0.996
     eigenvectors (columns):
      -0.482 -0.876 -0.013  0.001 -0.000
      -0.010 -0.000  0.353 -0.736  0.577
       0.005 -0.009  0.461  0.674  0.577
      -0.876  0.482  0.001  0.013  0.000
      -0.005 -0.009  0.814 -0.063 -0.577
     occupation matrix ns (before diag.):
       0.994 -0.000 -0.000 -0.000 -0.000
      -0.000  0.996  0.000 -0.000 -0.000
      -0.000  0.000  0.996  0.000 -0.000
      -0.000 -0.000  0.000  0.994 -0.000
      -0.000 -0.000 -0.000 -0.000  0.996
     SPIN  2
     eigenvalues:
       0.233  0.233  0.992  0.992  0.992
     eigenvectors (columns):
       0.601 -0.799 -0.001  0.000 -0.000
      -0.001 -0.000 -0.387  0.719 -0.577
       0.000  0.001 -0.429 -0.695 -0.577
[...]
     1.0000   1.0000   1.0000   1.0000   1.0000   1.0000   1.0000   1.0000
     1.0000   1.0000   1.0000   1.0000   1.0000   1.0000   1.0000   1.0000
    -0.0000  -0.0000  -0.0000  -0.0000  -0.0000  -0.0000

          k =-0.6250 0.3750 0.3750 (  1463 PWs)   bands (ev):

   -90.5137 -88.2639 -50.9035 -50.8952 -50.8866 -48.7279 -48.7148 -48.7085
    -4.3019  -4.1134   5.9900   7.2683   7.5482   7.8686   8.5431   9.6846
     9.8551  10.0888  10.7319  10.8483  11.4314  11.7967  12.4540  12.5129
    16.4444  16.4927  20.9673  21.2362  24.4748  25.1181

     occupation numbers 
     1.0000   1.0000   1.0000   1.0000   1.0000   1.0000   1.0000   1.0000
     1.0000   1.0000   1.0000   1.0000   1.0000   1.0000   1.0000   1.0000
     1.0000   1.0000   1.0000   1.0000   1.0000   1.0000   1.0000   1.0000
    -0.0000  -0.0000  -0.0000  -0.0000  -0.0000  -0.0000

          k = 0.2500 0.2500 0.0000 (  1473 PWs)   bands (ev):

   -90.5151 -88.2655 -50.8979 -50.8842 -50.8817 -48.7177 -48.7058 -48.7029
    -5.1862  -4.5399   6.7072   7.5097   7.6103   8.8513   8.9460   9.2631
     9.6413  10.1610  11.0554  11.3732  11.4362  12.1128  12.1839  13.1055
    16.1248  16.2211  18.4485  20.4672  25.3401  28.0131

     occupation numbers 
     1.0000   1.0000   1.0000   1.0000   1.0000   1.0000   1.0000   1.0000
     1.0000   1.0000   1.0000   1.0000   1.0000   1.0000   1.0000   1.0000
     1.0000   1.0000   1.0000   1.0000   1.0000   1.0000   1.0000   1.0000
    -0.0000  -0.0000  -0.0000  -0.0000  -0.0000  -0.0000

          k =-1.0625 0.6875 0.4375 (  1461 PWs)   bands (ev):

   -90.5146 -88.2650 -50.8971 -50.8895 -50.8835 -48.7169 -48.7119 -48.7050
    -4.8888  -4.4826   6.7109   7.5967   7.7008   8.3641   8.5956   9.3267
     9.5207  10.2599  11.0152  11.2736  11.4687  12.0127  12.1972  12.7287
    15.8811  16.3142  19.8054  21.1751  25.6656  26.4669

     occupation numbers 
     1.0000   1.0000   1.0000   1.0000   1.0000   1.0000   1.0000   1.0000
     1.0000   1.0000   1.0000   1.0000   1.0000   1.0000   1.0000   1.0000
     1.0000   1.0000   1.0000   1.0000   1.0000   1.0000   1.0000   1.0000
    -0.0000  -0.0000  -0.0000  -0.0000  -0.0000  -0.0000

          k =-0.8750 0.6250 0.3750 (  1460 PWs)   bands (ev):

   -90.5139 -88.2643 -50.8967 -50.8960 -50.8864 -48.7201 -48.7156 -48.7083
    -4.5432  -4.2819   6.5366   7.1578   7.6307   8.1448   8.4714   9.5245
     9.6762  10.1523  10.7909  11.2240  11.5661  11.7229  12.3372  12.4814
    16.0019  16.3699  21.1109  21.7694  24.7655  25.7032

     occupation numbers 
     1.0000   1.0000   1.0000   1.0000   1.0000   1.0000   1.0000   1.0000
     1.0000   1.0000   1.0000   1.0000   1.0000   1.0000   1.0000   1.0000
     1.0000   1.0000   1.0000   1.0000   1.0000   1.0000   1.0000   1.0000
    -0.0000  -0.0000  -0.0000  -0.0000  -0.0000  -0.0000

          k =-0.6875 0.5625 0.3125 (  1470 PWs)   bands (ev):

   -90.5136 -88.2639 -50.9018 -50.8952 -50.8884 -48.7258 -48.7147 -48.7106
    -4.3019  -4.1144   6.1475   7.1165   7.4609   8.1420   8.3549   9.4198
     9.9616  10.2408  10.7025  10.9293  11.4527  11.7792  12.3648  12.4900
    16.3062  16.4667  21.4313  21.5507  24.2642  25.0720

     occupation numbers 
     1.0000   1.0000   1.0000   1.0000   1.0000   1.0000   1.0000   1.0000
     1.0000   1.0000   1.0000   1.0000   1.0000   1.0000   1.0000   1.0000
     1.0000   1.0000   1.0000   1.0000   1.0000   1.0000   1.0000   1.0000
    -0.0000  -0.0000  -0.0000  -0.0000  -0.0000  -0.0000

          k =-0.6250-0.6250 0.8750 (  1463 PWs)   bands (ev):

   -90.5144 -88.2648 -50.8968 -50.8922 -50.8837 -48.7165 -48.7150 -48.7053
    -4.7059  -4.5144   6.7344   7.4019   7.6641   8.1097   8.9285   9.2213
     9.5991  10.3642  10.6002  11.3496  11.4529  11.8673  12.4399  12.6686
    15.9406  16.4387  20.0250  21.1113  25.6867  25.9745

     occupation numbers 
     1.0000   1.0000   1.0000   1.0000   1.0000   1.0000   1.0000   1.0000
     1.0000   1.0000   1.0000   1.0000   1.0000   1.0000   1.0000   1.0000
     1.0000   1.0000   1.0000   1.0000   1.0000   1.0000   1.0000   1.0000
    -0.0000  -0.0000  -0.0000  -0.0000  -0.0000  -0.0000

          k =-0.4375-0.6875 0.8125 (  1461 PWs)   bands (ev):

   -90.5140 -88.2643 -50.8967 -50.8960 -50.8864 -48.7201 -48.7156 -48.7083
    -4.4757  -4.3521   6.5578   7.0952   7.6336   8.1935   8.4090   9.6013
     9.7782  10.0831  10.6945  11.2392  11.5000  11.6742  12.3549  12.6618
    16.1106  16.3339  21.0364  21.4018  25.0369  25.3320

     occupation numbers 
     1.0000   1.0000   1.0000   1.0000   1.0000   1.0000   1.0000   1.0000
     1.0000   1.0000   1.0000   1.0000   1.0000   1.0000   1.0000   1.0000
     1.0000   1.0000   1.0000   1.0000   1.0000   1.0000   1.0000   1.0000
    -0.0000  -0.0000  -0.0000  -0.0000  -0.0000  -0.0000

          k =-0.2500-0.7500 0.7500 (  1448 PWs)   bands (ev):

   -90.5135 -88.2638 -50.8993 -50.8952 -50.8910 -48.7230 -48.7147 -48.7135
    -4.2752  -4.1471   6.7623   6.8688   7.4548   7.5636   8.5482   9.2436
    10.0358  10.4797  10.4883  10.9103  11.4621  11.6784  12.4524  12.5989
    16.2594  16.2800  21.9985  22.1403  24.2402  24.3917

     occupation numbers 
     1.0000   1.0000   1.0000   1.0000   1.0000   1.0000   1.0000   1.0000
     1.0000   1.0000   1.0000   1.0000   1.0000   1.0000   1.0000   1.0000
     1.0000   1.0000   1.0000   1.0000   1.0000   1.0000   1.0000   1.0000
    -0.0000  -0.0000  -0.0000  -0.0000  -0.0000  -0.0000

          k =-0.5000-0.5000 0.7500 (  1468 PWs)   bands (ev):

   -90.5139 -88.2642 -50.9002 -50.8957 -50.8857 -48.7241 -48.7152 -48.7076
    -4.4262  -4.2272   6.1254   7.0283   7.5818   8.2929   8.7417   9.5406
     9.7335  10.3769  10.4243  11.2290  11.5634  11.7565  12.2371  12.4893
    16.2132  16.5998  20.8874  21.0053  24.6603  25.3214

     occupation numbers 
     1.0000   1.0000   1.0000   1.0000   1.0000   1.0000   1.0000   1.0000
     1.0000   1.0000   1.0000   1.0000   1.0000   1.0000   1.0000   1.0000
     1.0000   1.0000   1.0000   1.0000   1.0000   1.0000   1.0000   1.0000
    -0.0000  -0.0000  -0.0000  -0.0000  -0.0000  -0.0000

          k = 0.1875 0.1875 0.1875 (  1472 PWs)   bands (ev):

   -90.5154 -88.2658 -50.8983 -50.8808 -50.8808 -48.7183 -48.7020 -48.7020
    -5.2487  -4.6945   6.8682   7.5695   7.5695   8.4878   9.3620   9.3620
    10.0041  10.0041  10.8305  11.4901  11.4901  11.5522  13.0382  13.0382
    16.2696  16.2696  18.0501  19.5440  25.6331  27.9507

     occupation numbers 
     1.0000   1.0000   1.0000   1.0000   1.0000   1.0000   1.0000   1.0000
     1.0000   1.0000   1.0000   1.0000   1.0000   1.0000   1.0000   1.0000
     1.0000   1.0000   1.0000   1.0000   1.0000   1.0000   1.0000   1.0000
    -0.0000  -0.0000  -0.0000  -0.0000  -0.0000  -0.0000

          k =-1.1250 0.6250 0.6250 (  1461 PWs)   bands (ev):

   -90.5150 -88.2655 -50.8979 -50.8842 -50.8817 -48.7178 -48.7058 -48.7030
    -5.0464  -4.6979   6.9229   7.5968   7.6200   8.6043   9.0081   9.2429
     9.4798  10.1455  10.9561  11.5690  11.6209  11.6559  12.6765  12.7312
    15.8578  16.4044  19.1577  20.0246  25.9651  27.5235

     occupation numbers 
     1.0000   1.0000   1.0000   1.0000   1.0000   1.0000   1.0000   1.0000
     1.0000   1.0000   1.0000   1.0000   1.0000   1.0000   1.0000   1.0000
     1.0000   1.0000   1.0000   1.0000   1.0000   1.0000   1.0000   1.0000
    -0.0000  -0.0000  -0.0000  -0.0000  -0.0000  -0.0000

          k =-0.9375 0.5625 0.5625 (  1464 PWs)   bands (ev):

   -90.5144 -88.2648 -50.8968 -50.8923 -50.8837 -48.7165 -48.7150 -48.7053
    -4.7146  -4.5038   6.5951   7.5463   7.6566   8.1639   8.9292   9.2290
     9.5541  10.3494  10.6194  11.4576  11.7058  11.8929  12.2540  12.3515
    15.7631  16.5332  20.6431  20.8422  25.7114  26.6146

     occupation numbers 
     1.0000   1.0000   1.0000   1.0000   1.0000   1.0000   1.0000   1.0000
     1.0000   1.0000   1.0000   1.0000   1.0000   1.0000   1.0000   1.0000
     1.0000   1.0000   1.0000   1.0000   1.0000   1.0000   1.0000   1.0000
    -0.0000  -0.0000  -0.0000  -0.0000  -0.0000  -0.0000

          k =-0.6875-0.6875 1.0625 (  1467 PWs)   bands (ev):

   -90.5150 -88.2655 -50.8979 -50.8842 -50.8817 -48.7178 -48.7058 -48.7030
    -4.9562  -4.7943   7.0536   7.5838   7.6373   8.5299   8.8881   9.2600
     9.5394  10.0858  10.9643  11.4719  11.5008  11.8287  12.4969  13.0004
    15.9772  16.2879  19.2741  19.8858  26.3013  27.0210

     occupation numbers 
     1.0000   1.0000   1.0000   1.0000   1.0000   1.0000   1.0000   1.0000
     1.0000   1.0000   1.0000   1.0000   1.0000   1.0000   1.0000   1.0000
     1.0000   1.0000   1.0000   1.0000   1.0000   1.0000   1.0000   1.0000
    -0.0000  -0.0000  -0.0000  -0.0000  -0.0000  -0.0000

          k =-0.5000-0.7500 1.0000 (  1466 PWs)   bands (ev):

   -90.5145 -88.2650 -50.8971 -50.8895 -50.8835 -48.7169 -48.7119 -48.7050
    -4.7266  -4.6536   6.7555   7.6168   7.7521   8.4134   8.5232   9.2251
     9.5367  10.2072  10.9766  11.4228  11.4894  11.8705  12.2541  12.6914
    15.8929  16.2919  20.4966  20.5010  26.6229  26.6702

     occupation numbers 
     1.0000   1.0000   1.0000   1.0000   1.0000   1.0000   1.0000   1.0000
     1.0000   1.0000   1.0000   1.0000   1.0000   1.0000   1.0000   1.0000
     1.0000   1.0000   1.0000   1.0000   1.0000   1.0000   1.0000   1.0000
    -0.0000  -0.0000  -0.0000  -0.0000  -0.0000  -0.0000

          k =-0.2500-0.2500-0.2500 (  1466 PWs)   bands (ev):

   -90.5153 -88.2658 -50.8983 -50.8808 -50.8808 -48.7183 -48.7020 -48.7020
    -4.9859  -4.9773   7.4699   7.5957   7.5957   7.8814   9.3804   9.3804
     9.9186   9.9186  10.7556  11.4659  11.4659  11.5151  13.1407  13.1407
    16.2213  16.2213  18.8254  18.9555  26.5670  26.7033

     occupation numbers 
     1.0000   1.0000   1.0000   1.0000   1.0000   1.0000   1.0000   1.0000
     1.0000   1.0000   1.0000   1.0000   1.0000   1.0000   1.0000   1.0000
     1.0000   1.0000   1.0000   1.0000   1.0000   1.0000   1.0000   1.0000
    -0.0000  -0.0000  -0.0000  -0.0000  -0.0000  -0.0000

     the Fermi energy is    14.2497 ev

!    total energy              =    -750.88018889 Ry
     estimated scf accuracy    <          2.6E-11 Ry
     smearing contrib. (-TS)   =       0.00000000 Ry
     internal energy E=F+TS    =    -750.88018889 Ry

     The total energy is F=E-TS. E is the sum of the following terms:
     one-electron contribution =    -431.96384242 Ry
     hartree contribution      =     245.50777753 Ry
     xc contribution           =     -85.90696137 Ry
     ewald contribution        =    -478.65351537 Ry
     Hubbard energy            =       0.13635272 Ry

     total magnetization       =    -0.00 Bohr mag/cell
     absolute magnetization    =     3.49 Bohr mag/cell

     convergence has been achieved in  16 iterations

     Forces acting on atoms (cartesian axes, Ry/au):

     atom    1 type  1   force =    -0.00000012   -0.00000012   -0.00000012
     atom    2 type  1   force =     0.00000012    0.00000012    0.00000012
     atom    3 type  2   force =     0.00000000    0.00000000    0.00000000
     atom    4 type  3   force =     0.00000000    0.00000000    0.00000000
     The non-local contrib.  to forces
     atom    1 type  1   force =     0.00000074    0.00000074    0.00000074
     atom    2 type  1   force =    -0.00000074   -0.00000074   -0.00000074
     atom    3 type  2   force =     0.00000000   -0.00000000    0.00000000
     atom    4 type  3   force =    -0.00000000   -0.00000000    0.00000000
     The ionic contribution  to forces
     atom    1 type  1   force =    -0.00000000   -0.00000000   -0.00000000
     atom    2 type  1   force =     0.00000000    0.00000000    0.00000000
     atom    3 type  2   force =    -0.00000000   -0.00000000   -0.00000000
     atom    4 type  3   force =     0.00000000    0.00000000    0.00000000
     The local contribution  to forces
     atom    1 type  1   force =     0.00000265    0.00000265    0.00000265
     atom    2 type  1   force =    -0.00000265   -0.00000265   -0.00000265
     atom    3 type  2   force =     0.00000000    0.00000000    0.00000000
     atom    4 type  3   force =     0.00000000    0.00000000    0.00000000
     The core correction contribution to forces
     atom    1 type  1   force =    -0.00000035   -0.00000035   -0.00000035
     atom    2 type  1   force =     0.00000035    0.00000035    0.00000035
     atom    3 type  2   force =     0.00000000    0.00000000    0.00000000
     atom    4 type  3   force =     0.00000000    0.00000000    0.00000000
     The Hubbard contrib.    to forces
     atom    1 type  1   force =    -0.00000000   -0.00000000   -0.00000000
     atom    2 type  1   force =     0.00000000    0.00000000    0.00000000
     atom    3 type  2   force =     0.00000000   -0.00000000   -0.00000000
     atom    4 type  3   force =     0.00000000    0.00000000    0.00000000
     The SCF correction term to forces
     atom    1 type  1   force =    -0.00000316   -0.00000316   -0.00000316
     atom    2 type  1   force =     0.00000316    0.00000316    0.00000316
     atom    3 type  2   force =     0.00000000    0.00000000   -0.00000000
     atom    4 type  3   force =    -0.00000000    0.00000000    0.00000000

     Total force =     0.000000     Total SCF correction =     0.000008
     SCF correction compared to forces is large: reduce conv_thr to get better values


     Computing stress (Cartesian axis) and pressure

          total   stress  (Ry/bohr**3)                   (kbar)     P=      106.47
   0.00072375  -0.00001044  -0.00001044          106.47       -1.54       -1.54
  -0.00001044   0.00072375  -0.00001044           -1.54      106.47       -1.54
  -0.00001044  -0.00001044   0.00072375           -1.54       -1.54      106.47

     kinetic stress (kbar)  48850.19      2.00      2.00
                                2.00  48850.19      2.00
                                2.00      2.00  48850.19

     local   stress (kbar)  -4696.28     -0.40     -0.40
                               -0.40  -4696.28     -0.40
                               -0.40     -0.40  -4696.28

     nonloc. stress (kbar)  20620.80     -1.53     -1.53
                               -1.53  20620.80     -1.53
                               -1.53     -1.53  20620.80

     hartree stress (kbar)  49203.60     -1.60     -1.60
                               -1.60  49203.60     -1.60
                               -1.60     -1.60  49203.60

     exc-cor stress (kbar) -13836.27     -0.03     -0.03
                               -0.03 -13836.27     -0.03
                               -0.03     -0.03 -13836.27

     corecor stress (kbar)  -2494.05     -0.01     -0.01
                               -0.01  -2494.05     -0.01
                               -0.01     -0.01  -2494.05

     ewald   stress (kbar) -95929.66     -0.00      0.00
                               -0.00 -95929.66     -0.00
                                0.00     -0.00 -95929.66

     hubbard stress (kbar)  -1611.87      0.04      0.04
                                0.04  -1611.87      0.04
                                0.04      0.04  -1611.87

     DFT-D   stress (kbar)      0.00      0.00      0.00
                                0.00      0.00      0.00
                                0.00      0.00      0.00

     XDM     stress (kbar)      0.00      0.00      0.00
                                0.00      0.00      0.00
                                0.00      0.00      0.00

     dft-nl  stress (kbar)      0.00      0.00      0.00
                                0.00      0.00      0.00
                                0.00      0.00      0.00

     TS-vdW  stress (kbar)      0.00      0.00      0.00
                                0.00      0.00      0.00
                                0.00      0.00      0.00


                                0.00      0.00      0.00
                                0.00      0.00      0.00


                                0.00      0.00      0.00


     Writing all to output data dir ./nio_hub.save/

     init_run     :     14.68s CPU     15.03s WALL (       1 calls)
     electrons    :    578.26s CPU    586.22s WALL (       1 calls)
     forces       :      7.99s CPU      8.16s WALL (       1 calls)
     stress       :     21.42s CPU     21.96s WALL (       1 calls)

     Called by init_run:
     wfcinit      :     12.82s CPU     12.93s WALL (       1 calls)
     wfcinit:atom :      0.08s CPU      0.08s WALL (     130 calls)
     wfcinit:wfcr :     11.31s CPU     11.39s WALL (     130 calls)
     potinit      :      0.63s CPU      0.70s WALL (       1 calls)
     hinit0       :      0.85s CPU      0.88s WALL (       1 calls)

     Called by electrons:
     c_bands      :    472.69s CPU    474.99s WALL (      16 calls)
     sum_band     :     89.69s CPU     92.41s WALL (      16 calls)
     v_of_rho     :      9.37s CPU      9.91s WALL (      17 calls)
     v_h          :      0.22s CPU      0.23s WALL (      17 calls)
     v_xc         :     10.20s CPU     10.77s WALL (      19 calls)
     newd         :      5.69s CPU      8.20s WALL (      17 calls)
     mix_rho      :      0.97s CPU      0.98s WALL (      16 calls)

     Called by c_bands:
     init_us_2    :      3.16s CPU      3.18s WALL (    4940 calls)
     init_us_2:cp :      3.14s CPU      3.17s WALL (    4940 calls)
     cegterg      :    466.28s CPU    468.51s WALL (    2080 calls)

     Called by sum_band:
     sum_band:wei :      0.01s CPU      0.01s WALL (      16 calls)
     sum_band:loo :     77.87s CPU     78.12s WALL (      16 calls)
     sum_band:buf :      0.22s CPU      0.22s WALL (    2080 calls)
     sum_band:ini :      1.31s CPU      1.31s WALL (    2080 calls)
     sum_band:cal :      7.42s CPU      7.44s WALL (    2080 calls)
     sum_band:bec :      0.12s CPU      0.12s WALL (    2080 calls)
     addusdens    :      9.70s CPU     12.09s WALL (      16 calls)
     addusd:skk   :      0.01s CPU      0.02s WALL (      48 calls)
     addusd:dgemm :      3.08s CPU      5.13s WALL (      96 calls)
     addusd:qvan2 :      6.19s CPU      6.34s WALL (      96 calls)

     Called by *egterg:
     cdiaghg      :      6.98s CPU      7.02s WALL (    7506 calls)
     cegterg:over :     19.75s CPU     19.84s WALL (    5426 calls)
     cegterg:upda :      9.13s CPU      9.17s WALL (    5426 calls)
     cegterg:last :     24.58s CPU     24.67s WALL (    4480 calls)
     h_psi        :    391.82s CPU    393.81s WALL (    7636 calls)
     s_psi        :     16.79s CPU     16.89s WALL (    8026 calls)
     g_psi        :      0.50s CPU      0.50s WALL (    5426 calls)

     Called by h_psi:
     h_psi:calbec :     19.49s CPU     19.57s WALL (    7636 calls)
     vloc_psi     :    350.56s CPU    352.38s WALL (    7636 calls)
     add_vuspsi   :     15.48s CPU     15.56s WALL (    7636 calls)
     vhpsi        :      5.69s CPU      5.72s WALL (    7636 calls)

     General routines
     calbec       :     49.16s CPU     49.42s WALL (   46862 calls)
     fft          :      5.14s CPU      5.21s WALL (     463 calls)
     ffts         :      0.14s CPU      0.14s WALL (      66 calls)
     fftw         :    377.15s CPU    379.33s WALL (  389374 calls)
     interpolate  :      0.61s CPU      0.61s WALL (      34 calls)
     davcio       :      0.00s CPU      0.02s WALL (     130 calls)

     Parallel routines

     Hubbard U routines
     new_ns       :      1.56s CPU      1.60s WALL (      16 calls)
     vhpsi        :      5.69s CPU      5.72s WALL (    7636 calls)
     force_hub    :      4.79s CPU      4.81s WALL (       1 calls)
     stres_hub    :     14.85s CPU     14.92s WALL (       1 calls)

     PWSCF        :  10m22.55s CPU  10m31.72s WALL


   This run was terminated on:  19: 0:58   1Feb2022            

=------------------------------------------------------------------------------=
   JOB DONE.
=------------------------------------------------------------------------------=
