 BEGIN_INFO
   #
   # this is a Band-XCRYSDEN-Structure-File
   # aimed at Visualization of Fermi Surface
   #
   # Case:   ag_fs.bxsf
   #
 Fermi Energy:         16.4458
 END_INFO
 BEGIN_BLOCK_BANDGRID_3D
 band_energies
 BANDGRID_3D_BANDS
    1
   21   21   21
  0.000000  0.000000  0.000000
 -1.000000 -1.000000  1.000000
  1.000000  1.000000  1.000000
 -1.000000  1.000000 -1.000000
BAND:  10
   12.7782   12.7703   12.7532   12.7481   12.7887   12.8973
   13.0570   13.5827   14.6239   15.6387   16.1546   15.6387
   14.6239   13.5827   13.0570   12.8973   12.7887   12.7481
   12.7532   12.7703   12.7782   12.7703   12.7947   12.8062
   12.8203   12.8647   12.9626   13.1073   13.6250   14.5048
   15.5226   16.2931   16.1087   15.1953   14.2210   13.5253
   13.1720   12.9697   12.8555   12.8066   12.7880   12.7703
   12.7532   12.8062   12.8431   12.8750   12.9246   13.0163
   13.1822   13.7881   14.6327   15.6448   16.6044   16.8137
   16.0198   15.0403   14.2226   13.6518   13.2765   13.0314
   12.8857   12.8066   12.7532   12.7481   12.8203   12.8750
   12.9191   12.9709   13.0560   13.2517   13.9221   14.7954
   15.8344   16.9334   17.5932   16.9680   15.9443   15.0168
   14.2766   13.7203   13.3135   13.0314   12.8555   12.7481
   12.7887   12.8647   12.9246   12.9709   13.0160   13.0860
   13.2908   14.0253   14.9436   16.0196   17.2070   18.2812
   18.0023   16.9240   15.8984   15.0208   14.2988   13.7203
   13.2765   12.9697   12.7887   12.8973   12.9626   13.0163
   13.0560   13.0860   13.1251   13.3331   14.1245   15.0836
   16.1891   17.4208   18.7194   19.1017   17.9773   16.8694
   15.8831   15.0208   14.2766   13.6518   13.1720   12.8973
   13.0570   13.1073   13.1822   13.2517   13.2908   13.3331
   13.5968   14.3110   15.2606   16.3638   17.5967   18.9406
   20.1691   19.1050   17.9368   16.8694   15.8984   15.0168
   14.2226   13.5253   13.0570   13.5827   13.6250   13.7881
   13.9221   14.0253   14.1245   14.3110   14.7740   15.5712
   16.5903   17.7570   19.0281   20.3434   20.3089   19.1050
   17.9773   16.9240   15.9443   15.0403   14.2210   13.5827
   14.6239   14.5048   14.6327   14.7954   14.9436   15.0836
   15.2606   15.5712   16.1256   16.9331   17.9103   18.9453
   19.8519   20.3434   20.1691   19.1017   18.0023   16.9680
   16.0198   15.1953   14.6239   15.6387   15.5226   15.6448
   15.8344   16.0196   16.1891   16.3638   16.5903   16.9331
   17.4317   18.0377   18.6016   18.9453   19.0281   18.9406
   18.7194   18.2812   17.5932   16.8137   16.1087   15.6387
   16.1546   16.2931   16.6044   16.9334   17.2070   17.4208
   17.5967   17.7570   17.9103   18.0377   18.0906   18.0377
   17.9103   17.7570   17.5967   17.4208   17.2070   16.9334
   16.6044   16.2931   16.1546   15.6387   16.1087   16.8137
   17.5932   18.2812   18.7194   18.9406   19.0281   18.9453
   18.6016   18.0377   17.4317   16.9331   16.5903   16.3638
   16.1891   16.0196   15.8344   15.6448   15.5226   15.6387
   14.6239   15.1953   16.0198   16.9680   18.0023   19.1017
   20.1691   20.3434   19.8519   18.9453   17.9103   16.9331
   16.1256   15.5712   15.2606   15.0836   14.9436   14.7954
   14.6327   14.5048   14.6239   13.5827   14.2210   15.0403
   15.9443   16.9240   17.9773   19.1050   20.3089   20.3434
   19.0281   17.7570   16.5903   15.5712   14.7740   14.3110
   14.1245   14.0253   13.9221   13.7881   13.6250   13.5827
   13.0570   13.5253   14.2226   15.0168   15.8984   16.8694
   17.9368   19.1050   20.1691   18.9406   17.5967   16.3638
   15.2606   14.3110   13.5968   13.3331   13.2908   13.2517
   13.1822   13.1073   13.0570   12.8973   13.1720   13.6518
   14.2766   15.0208   15.8831   16.8694   17.9773   19.1017
   18.7194   17.4208   16.1891   15.0836   14.1245   13.3331
   13.1251   13.0860   13.0560   13.0163   12.9626   12.8973
   12.7887   12.9697   13.2765   13.7203   14.2988   15.0208
   15.8984   16.9240   18.0023   18.2812   17.2070   16.0196
   14.9436   14.0253   13.2908   13.0860   13.0160   12.9709
   12.9246   12.8647   12.7887   12.7481   12.8555   13.0314
   13.3135   13.7203   14.2766   15.0168   15.9443   16.9680
   17.5932   16.9334   15.8344   14.7954   13.9221   13.2517
   13.0560   12.9709   12.9191   12.8750   12.8203   12.7481
   12.7532   12.8066   12.8857   13.0314   13.2765   13.6518
   14.2226   15.0403   16.0198   16.8137   16.6044   15.6448
   14.6327   13.7881   13.1822   13.0163   12.9246   12.8750
   12.8431   12.8062   12.7532   12.7703   12.7880   12.8066
   12.8555   12.9697   13.1720   13.5253   14.2210   15.1953
   16.1087   16.2931   15.5226   14.5048   13.6250   13.1073
   12.9626   12.8647   12.8203   12.8062   12.7947   12.7703
   12.7782   12.7703   12.7532   12.7481   12.7887   12.8973
   13.0570   13.5827   14.6239   15.6387   16.1546   15.6387
   14.6239   13.5827   13.0570   12.8973   12.7887   12.7481
   12.7532   12.7703   12.7782   12.7703   12.7947   12.8062
   12.8203   12.8647   12.9626   13.1073   13.6250   14.5048
   15.5226   16.2931   16.1087   15.1953   14.2210   13.5253
   13.1720   12.9697   12.8555   12.8066   12.7880   12.7703
   12.7947   12.7703   12.7880   12.8066   12.8555   12.9697
   13.1720   13.5253   14.2210   15.1953   16.1087   16.2931
   15.5226   14.5048   13.6250   13.1073   12.9626   12.8647
   12.8203   12.8062   12.7947   12.8062   12.7880   12.8062
   12.8367   12.8920   13.0100   13.2288   13.6135   14.2710
   15.1885   16.1793   16.7235   16.1793   15.1885   14.2710
   13.6135   13.2288   13.0100   12.8920   12.8367   12.8062
   12.8203   12.8066   12.8367   12.8750   12.9290   13.0383
   13.2642   13.6973   14.3941   15.3181   16.3712   17.2424
   17.0270   16.0524   15.0728   14.2764   13.6982   13.3008
   13.0408   12.8920   12.8203   12.8647   12.8555   12.8920
   12.9290   12.9709   13.0557   13.2753   13.7612   14.5150
   15.4740   16.5807   17.6948   17.9718   17.0189   15.9639
   15.0471   14.3055   13.7302   13.3008   13.0100   12.8647
   12.9626   12.9697   13.0100   13.0383   13.0557   13.0860
   13.2655   13.8165   14.6295   15.6270   16.7728   18.0157
   18.9150   18.0669   16.9376   15.9206   15.0442   14.3055
   13.6982   13.2288   12.9626   13.1073   13.1720   13.2288
   13.2642   13.2753   13.2655   13.3331   13.9316   14.7744
   15.7908   16.9517   18.2355   19.5610   19.1881   17.9956
   16.9015   15.9206   15.0471   14.2764   13.6135   13.1073
   13.6250   13.5253   13.6135   13.6973   13.7612   13.8165
   13.9316   14.3110   15.0457   16.0133   17.1414   18.3978
   19.7564   20.3753   19.1430   17.9956   16.9376   15.9639
   15.0728   14.2710   13.6250   14.5048   14.2210   14.2710
   14.3941   14.5150   14.6295   14.7744   15.0457   15.5712
   16.3725   17.3756   18.5070   19.6839   20.7095   20.3753
   19.1881   18.0669   17.0189   16.0524   15.1885   14.5048
   15.5226   15.1953   15.1885   15.3181   15.4740   15.6270
   15.7908   16.0133   16.3725   16.9331   17.6805   18.5153
   19.2584   19.6839   19.7564   19.5610   18.9150   17.9718
   17.0270   16.1793   15.5226   16.2931   16.1087   16.1793
   16.3712   16.5807   16.7728   16.9517   17.1414   17.3756
   17.6805   18.0377   18.3540   18.5153   18.5070   18.3978
   18.2355   18.0157   17.6948   17.2424   16.7235   16.2931
   16.1087   16.2931   16.7235   17.2424   17.6948   18.0157
   18.2355   18.3978   18.5070   18.5153   18.3540   18.0377
   17.6805   17.3756   17.1414   16.9517   16.7728   16.5807
   16.3712   16.1793   16.1087   15.1953   15.5226   16.1793
   17.0270   17.9718   18.9150   19.5610   19.7564   19.6839
   19.2584   18.5153   17.6805   16.9331   16.3725   16.0133
   15.7908   15.6270   15.4740   15.3181   15.1885   15.1953
   14.2210   14.5048   15.1885   16.0524   17.0189   18.0669
   19.1881   20.3753   20.7095   19.6839   18.5070   17.3756
   16.3725   15.5712   15.0457   14.7744   14.6295   14.5150
   14.3941   14.2710   14.2210   13.5253   13.6250   14.2710
   15.0728   15.9639   16.9376   17.9956   19.1430   20.3753
   19.7564   18.3978   17.1414   16.0133   15.0457   14.3110
   13.9316   13.8165   13.7612   13.6973   13.6135   13.5253
   13.1720   13.1073   13.6135   14.2764   15.0471   15.9206
   16.9015   17.9956   19.1881   19.5610   18.2355   16.9517
   15.7908   14.7744   13.9316   13.3331   13.2655   13.2753
   13.2642   13.2288   13.1720   12.9697   12.9626   13.2288
   13.6982   14.3055   15.0442   15.9206   16.9376   18.0669
   18.9150   18.0157   16.7728   15.6270   14.6295   13.8165
   13.2655   13.0860   13.0557   13.0383   13.0100   12.9697
   12.8555   12.8647   13.0100   13.3008   13.7302   14.3055
   15.0471   15.9639   17.0189   17.9718   17.6948   16.5807
   15.4740   14.5150   13.7612   13.2753   13.0557   12.9709
   12.9290   12.8920   12.8555   12.8066   12.8203   12.8920
   13.0408   13.3008   13.6982   14.2764   15.0728   16.0524
   17.0270   17.2424   16.3712   15.3181   14.3941   13.6973
   13.2642   13.0383   12.9290   12.8750   12.8367   12.8066
   12.7880   12.8062   12.8367   12.8920   13.0100   13.2288
   13.6135   14.2710   15.1885   16.1793   16.7235   16.1793
   15.1885   14.2710   13.6135   13.2288   13.0100   12.8920
   12.8367   12.8062   12.7880   12.7703   12.7947   12.8062
   12.8203   12.8647   12.9626   13.1073   13.6250   14.5048
   15.5226   16.2931   16.1087   15.1953   14.2210   13.5253
   13.1720   12.9697   12.8555   12.8066   12.7880   12.7703
   12.7532   12.8062   12.8431   12.8750   12.9246   13.0163
   13.1822   13.7881   14.6327   15.6448   16.6044   16.8137
   16.0198   15.0403   14.2226   13.6518   13.2765   13.0314
   12.8857   12.8066   12.7532   12.8062   12.7880   12.8062
   12.8367   12.8920   13.0100   13.2288   13.6135   14.2710
   15.1885   16.1793   16.7235   16.1793   15.1885   14.2710
   13.6135   13.2288   13.0100   12.8920   12.8367   12.8062
   12.8431   12.8062   12.7532   12.8066   12.8857   13.0314
   13.2765   13.6518   14.2226   15.0403   16.0198   16.8137
   16.6044   15.6448   14.6327   13.7881   13.1822   13.0163
   12.9246   12.8750   12.8431   12.8750   12.8367   12.8066
   12.8203   12.8920   13.0408   13.3008   13.6982   14.2764
   15.0728   16.0524   17.0270   17.2424   16.3712   15.3181
   14.3941   13.6973   13.2642   13.0383   12.9290   12.8750
   12.9246   12.8920   12.8857   12.8920   12.9246   13.0383
   13.2999   13.7297   14.3477   15.1688   16.1712   17.2662
   17.9636   17.2662   16.1712   15.1688   14.3477   13.7297
   13.2999   13.0383   12.9246   13.0163   13.0100   13.0314
   13.0408   13.0383   13.0560   13.2753   13.7517   14.4243
   15.2863   16.3190   17.4831   18.5856   18.2734   17.1306
   16.0506   15.1179   14.3460   13.7297   13.2642   13.0163
   13.1822   13.2288   13.2765   13.3008   13.2999   13.2753
   13.2908   13.8165   14.5364   15.4310   16.4850   17.6787
   18.9649   19.3628   18.1784   17.0326   16.0113   15.1179
   14.3477   13.6973   13.1822   13.7881   13.6135   13.6518
   13.6982   13.7297   13.7517   13.8165   14.1245   14.7744
   15.6478   16.6891   17.8733   19.1815   20.4349   19.3098
   18.1179   17.0326   16.0506   15.1688   14.3941   13.7881
   14.6327   14.2710   14.2226   14.2764   14.3477   14.4243
   14.5364   14.7744   15.2606   16.0133   16.9717   18.0850
   19.3149   20.6032   20.5236   19.3098   18.1784   17.1306
   16.1712   15.3181   14.6327   15.6448   15.1885   15.0403
   15.0728   15.1688   15.2863   15.4310   15.6478   16.0133
   16.5903   17.3756   18.3132   19.3105   20.1765   20.6032
   20.4349   19.3628   18.2734   17.2662   16.3712   15.6448
   16.6044   16.1793   16.0198   16.0524   16.1712   16.3190
   16.4850   16.6891   16.9717   17.3756   17.9103   18.5153
   19.0413   19.3105   19.3149   19.1815   18.9649   18.5856
   17.9636   17.2424   16.6044   16.8137   16.7235   16.8137
   17.0270   17.2662   17.4831   17.6787   17.8733   18.0850
   18.3132   18.5153   18.6016   18.5153   18.3132   18.0850
   17.8733   17.6787   17.4831   17.2662   17.0270   16.8137
   16.0198   16.1793   16.6044   17.2424   17.9636   18.5856
   18.9649   19.1815   19.3149   19.3105   19.0413   18.5153
   17.9103   17.3756   16.9717   16.6891   16.4850   16.3190
   16.1712   16.0524   16.0198   15.0403   15.1885   15.6448
   16.3712   17.2662   18.2734   19.3628   20.4349   20.6032
   20.1765   19.3105   18.3132   17.3756   16.5903   16.0133
   15.6478   15.4310   15.2863   15.1688   15.0728   15.0403
   14.2226   14.2710   14.6327   15.3181   16.1712   17.1306
   18.1784   19.3098   20.5236   20.6032   19.3149   18.0850
   16.9717   16.0133   15.2606   14.7744   14.5364   14.4243
   14.3477   14.2764   14.2226   13.6518   13.6135   13.7881
   14.3941   15.1688   16.0506   17.0326   18.1179   19.3098
   20.4349   19.1815   17.8733   16.6891   15.6478   14.7744
   14.1245   13.8165   13.7517   13.7297   13.6982   13.6518
   13.2765   13.2288   13.1822   13.6973   14.3477   15.1179
   16.0113   17.0326   18.1784   19.3628   18.9649   17.6787
   16.4850   15.4310   14.5364   13.8165   13.2908   13.2753
   13.2999   13.3008   13.2765   13.0314   13.0100   13.0163
   13.2642   13.7297   14.3460   15.1179   16.0506   17.1306
   18.2734   18.5856   17.4831   16.3190   15.2863   14.4243
   13.7517   13.2753   13.0560   13.0383   13.0408   13.0314
   12.8857   12.8920   12.9246   13.0383   13.2999   13.7297
   14.3477   15.1688   16.1712   17.2662   17.9636   17.2662
   16.1712   15.1688   14.3477   13.7297   13.2999   13.0383
   12.9246   12.8920   12.8857   12.8066   12.8367   12.8750
   12.9290   13.0383   13.2642   13.6973   14.3941   15.3181
   16.3712   17.2424   17.0270   16.0524   15.0728   14.2764
   13.6982   13.3008   13.0408   12.8920   12.8203   12.8066
   12.7532   12.8062   12.8431   12.8750   12.9246   13.0163
   13.1822   13.7881   14.6327   15.6448   16.6044   16.8137
   16.0198   15.0403   14.2226   13.6518   13.2765   13.0314
   12.8857   12.8066   12.7532   12.7481   12.8203   12.8750
   12.9191   12.9709   13.0560   13.2517   13.9221   14.7954
   15.8344   16.9334   17.5932   16.9680   15.9443   15.0168
   14.2766   13.7203   13.3135   13.0314   12.8555   12.7481
   12.8203   12.8066   12.8367   12.8750   12.9290   13.0383
   13.2642   13.6973   14.3941   15.3181   16.3712   17.2424
   17.0270   16.0524   15.0728   14.2764   13.6982   13.3008
   13.0408   12.8920   12.8203   12.8750   12.8367   12.8066
   12.8203   12.8920   13.0408   13.3008   13.6982   14.2764
   15.0728   16.0524   17.0270   17.2424   16.3712   15.3181
   14.3941   13.6973   13.2642   13.0383   12.9290   12.8750
   12.9191   12.8750   12.8203   12.7481   12.8555   13.0314
   13.3135   13.7203   14.2766   15.0168   15.9443   16.9680
   17.5932   16.9334   15.8344   14.7954   13.9221   13.2517
   13.0560   12.9709   12.9191   12.9709   12.9290   12.8920
   12.8555   12.8647   13.0100   13.3008   13.7302   14.3055
   15.0471   15.9639   17.0189   17.9718   17.6948   16.5807
   15.4740   14.5150   13.7612   13.2753   13.0557   12.9709
   13.0560   13.0383   13.0408   13.0314   13.0100   13.0163
   13.2642   13.7297   14.3460   15.1179   16.0506   17.1306
   18.2734   18.5856   17.4831   16.3190   15.2863   14.4243
   13.7517   13.2753   13.0560   13.2517   13.2642   13.3008
   13.3135   13.3008   13.2642   13.2517   13.7612   14.4243
   15.2314   16.1856   17.2824   18.4989   19.4876   18.4989
   17.2824   16.1856   15.2314   14.4243   13.7612   13.2517
   13.9221   13.6973   13.6982   13.7203   13.7302   13.7297
   13.7612   14.0253   14.6295   15.4310   16.3850   17.4794
   18.7047   20.0234   19.6074   18.3507   17.2071   16.1856
   15.2863   14.5150   13.9221   14.7954   14.3941   14.2764
   14.2766   14.3055   14.3460   14.4243   14.6295   15.0836
   15.7908   16.6891   17.7407   18.9256   20.2265   20.7953
   19.5218   18.3507   17.2824   16.3190   15.4740   14.7954
   15.8344   15.3181   15.0728   15.0168   15.0471   15.1179
   15.2314   15.4310   15.7908   16.3638   17.1414   18.0850
   19.1527   20.2780   21.2512   20.7953   19.6074   18.4989
   17.4831   16.5807   15.8344   16.9334   16.3712   16.0524
   15.9443   15.9639   16.0506   16.1856   16.3850   16.6891
   17.1414   17.7570   18.5070   19.3105   19.9861   20.2780
   20.2265   20.0234   19.4876   18.5856   17.6948   16.9334
   17.5932   17.2424   17.0270   16.9680   17.0189   17.1306
   17.2824   17.4794   17.7407   18.0850   18.5070   18.9453
   19.2584   19.3105   19.1527   18.9256   18.7047   18.4989
   18.2734   17.9718   17.5932   16.9680   17.0270   17.2424
   17.5932   17.9718   18.2734   18.4989   18.7047   18.9256
   19.1527   19.3105   19.2584   18.9453   18.5070   18.0850
   17.7407   17.4794   17.2824   17.1306   17.0189   16.9680
   15.9443   16.0524   16.3712   16.9334   17.6948   18.5856
   19.4876   20.0234   20.2265   20.2780   19.9861   19.3105
   18.5070   17.7570   17.1414   16.6891   16.3850   16.1856
   16.0506   15.9639   15.9443   15.0168   15.0728   15.3181
   15.8344   16.5807   17.4831   18.4989   19.6074   20.7953
   21.2512   20.2780   19.1527   18.0850   17.1414   16.3638
   15.7908   15.4310   15.2314   15.1179   15.0471   15.0168
   14.2766   14.2764   14.3941   14.7954   15.4740   16.3190
   17.2824   18.3507   19.5218   20.7953   20.2265   18.9256
   17.7407   16.6891   15.7908   15.0836   14.6295   14.4243
   14.3460   14.3055   14.2766   13.7203   13.6982   13.6973
   13.9221   14.5150   15.2863   16.1856   17.2071   18.3507
   19.6074   20.0234   18.7047   17.4794   16.3850   15.4310
   14.6295   14.0253   13.7612   13.7297   13.7302   13.7203
   13.3135   13.3008   13.2642   13.2517   13.7612   14.4243
   15.2314   16.1856   17.2824   18.4989   19.4876   18.4989
   17.2824   16.1856   15.2314   14.4243   13.7612   13.2517
   13.2642   13.3008   13.3135   13.0314   13.0408   13.0383
   13.0560   13.2753   13.7517   14.4243   15.2863   16.3190
   17.4831   18.5856   18.2734   17.1306   16.0506   15.1179
   14.3460   13.7297   13.2642   13.0163   13.0100   13.0314
   12.8555   12.8920   12.9290   12.9709   13.0557   13.2753
   13.7612   14.5150   15.4740   16.5807   17.6948   17.9718
   17.0189   15.9639   15.0471   14.3055   13.7302   13.3008
   13.0100   12.8647   12.8555   12.7481   12.8203   12.8750
   12.9191   12.9709   13.0560   13.2517   13.9221   14.7954
   15.8344   16.9334   17.5932   16.9680   15.9443   15.0168
   14.2766   13.7203   13.3135   13.0314   12.8555   12.7481
   12.7887   12.8647   12.9246   12.9709   13.0160   13.0860
   13.2908   14.0253   14.9436   16.0196   17.2070   18.2812
   18.0023   16.9240   15.8984   15.0208   14.2988   13.7203
   13.2765   12.9697   12.7887   12.8647   12.8555   12.8920
   12.9290   12.9709   13.0557   13.2753   13.7612   14.5150
   15.4740   16.5807   17.6948   17.9718   17.0189   15.9639
   15.0471   14.3055   13.7302   13.3008   13.0100   12.8647
   12.9246   12.8920   12.8857   12.8920   12.9246   13.0383
   13.2999   13.7297   14.3477   15.1688   16.1712   17.2662
   17.9636   17.2662   16.1712   15.1688   14.3477   13.7297
   13.2999   13.0383   12.9246   12.9709   12.9290   12.8920
   12.8555   12.8647   13.0100   13.3008   13.7302   14.3055
   15.0471   15.9639   17.0189   17.9718   17.6948   16.5807
   15.4740   14.5150   13.7612   13.2753   13.0557   12.9709
   13.0160   12.9709   12.9246   12.8647   12.7887   12.9697
   13.2765   13.7203   14.2988   15.0208   15.8984   16.9240
   18.0023   18.2812   17.2070   16.0196   14.9436   14.0253
   13.2908   13.0860   13.0160   13.0860   13.0557   13.0383
   13.0100   12.9697   12.9626   13.2288   13.6982   14.3055
   15.0442   15.9206   16.9376   18.0669   18.9150   18.0157
   16.7728   15.6270   14.6295   13.8165   13.2655   13.0860
   13.2908   13.2753   13.2999   13.3008   13.2765   13.2288
   13.1822   13.6973   14.3477   15.1179   16.0113   17.0326
   18.1784   19.3628   18.9649   17.6787   16.4850   15.4310
   14.5364   13.8165   13.2908   14.0253   13.7612   13.7297
   13.7302   13.7203   13.6982   13.6973   13.9221   14.5150
   15.2863   16.1856   17.2071   18.3507   19.6074   20.0234
   18.7047   17.4794   16.3850   15.4310   14.6295   14.0253
   14.9436   14.5150   14.3477   14.3055   14.2988   14.3055
   14.3477   14.5150   14.9436   15.6270   16.4850   17.4794
   18.5977   19.8349   21.1309   19.8349   18.5977   17.4794
   16.4850   15.6270   14.9436   16.0196   15.4740   15.1688
   15.0471   15.0208   15.0442   15.1179   15.2863   15.6270
   16.1891   16.9517   17.8733   18.9256   20.0877   21.3224
   21.0601   19.8349   18.7047   17.6787   16.7728   16.0196
   17.2070   16.5807   16.1712   15.9639   15.8984   15.9206
   16.0113   16.1856   16.4850   16.9517   17.5967   18.3978
   19.3149   20.2780   21.0799   21.3224   21.1309   20.0234
   18.9649   18.0157   17.2070   18.2812   17.6948   17.2662
   17.0189   16.9240   16.9376   17.0326   17.2071   17.4794
   17.8733   18.3978   19.0281   19.6839   20.1765   20.2780
   20.0877   19.8349   19.6074   19.3628   18.9150   18.2812
   18.0023   17.9718   17.9636   17.9718   18.0023   18.0669
   18.1784   18.3507   18.5977   18.9256   19.3149   19.6839
   19.8519   19.6839   19.3149   18.9256   18.5977   18.3507
   18.1784   18.0669   18.0023   16.9240   17.0189   17.2662
   17.6948   18.2812   18.9150   19.3628   19.6074   19.8349
   20.0877   20.2780   20.1765   19.6839   19.0281   18.3978
   17.8733   17.4794   17.2071   17.0326   16.9376   16.9240
   15.8984   15.9639   16.1712   16.5807   17.2070   18.0157
   18.9649   20.0234   21.1309   21.3224   21.0799   20.2780
   19.3149   18.3978   17.5967   16.9517   16.4850   16.1856
   16.0113   15.9206   15.8984   15.0208   15.0471   15.1688
   15.4740   16.0196   16.7728   17.6787   18.7047   19.8349
   21.0601   21.3224   20.0877   18.9256   17.8733   16.9517
   16.1891   15.6270   15.2863   15.1179   15.0442   15.0208
   14.2988   14.3055   14.3477   14.5150   14.9436   15.6270
   16.4850   17.4794   18.5977   19.8349   21.1309   19.8349
   18.5977   17.4794   16.4850   15.6270   14.9436   14.5150
   14.3477   14.3055   14.2988   13.7203   13.7302   13.7297
   13.7612   14.0253   14.6295   15.4310   16.3850   17.4794
   18.7047   20.0234   19.6074   18.3507   17.2071   16.1856
   15.2863   14.5150   13.9221   13.6973   13.6982   13.7203
   13.2765   13.3008   13.2999   13.2753   13.2908   13.8165
   14.5364   15.4310   16.4850   17.6787   18.9649   19.3628
   18.1784   17.0326   16.0113   15.1179   14.3477   13.6973
   13.1822   13.2288   13.2765   12.9697   13.0100   13.0383
   13.0557   13.0860   13.2655   13.8165   14.6295   15.6270
   16.7728   18.0157   18.9150   18.0669   16.9376   15.9206
   15.0442   14.3055   13.6982   13.2288   12.9626   12.9697
   12.7887   12.8647   12.9246   12.9709   13.0160   13.0860
   13.2908   14.0253   14.9436   16.0196   17.2070   18.2812
   18.0023   16.9240   15.8984   15.0208   14.2988   13.7203
   13.2765   12.9697   12.7887   12.8973   12.9626   13.0163
   13.0560   13.0860   13.1251   13.3331   14.1245   15.0836
   16.1891   17.4208   18.7194   19.1017   17.9773   16.8694
   15.8831   15.0208   14.2766   13.6518   13.1720   12.8973
   12.9626   12.9697   13.0100   13.0383   13.0557   13.0860
   13.2655   13.8165   14.6295   15.6270   16.7728   18.0157
   18.9150   18.0669   16.9376   15.9206   15.0442   14.3055
   13.6982   13.2288   12.9626   13.0163   13.0100   13.0314
   13.0408   13.0383   13.0560   13.2753   13.7517   14.4243
   15.2863   16.3190   17.4831   18.5856   18.2734   17.1306
   16.0506   15.1179   14.3460   13.7297   13.2642   13.0163
   13.0560   13.0383   13.0408   13.0314   13.0100   13.0163
   13.2642   13.7297   14.3460   15.1179   16.0506   17.1306
   18.2734   18.5856   17.4831   16.3190   15.2863   14.4243
   13.7517   13.2753   13.0560   13.0860   13.0557   13.0383
   13.0100   12.9697   12.9626   13.2288   13.6982   14.3055
   15.0442   15.9206   16.9376   18.0669   18.9150   18.0157
   16.7728   15.6270   14.6295   13.8165   13.2655   13.0860
   13.1251   13.0860   13.0560   13.0163   12.9626   12.8973
   13.1720   13.6518   14.2766   15.0208   15.8831   16.8694
   17.9773   19.1017   18.7194   17.4208   16.1891   15.0836
   14.1245   13.3331   13.1251   13.3331   13.2655   13.2753
   13.2642   13.2288   13.1720   13.1073   13.6135   14.2764
   15.0471   15.9206   16.9015   17.9956   19.1881   19.5610
   18.2355   16.9517   15.7908   14.7744   13.9316   13.3331
   14.1245   13.8165   13.7517   13.7297   13.6982   13.6518
   13.6135   13.7881   14.3941   15.1688   16.0506   17.0326
   18.1179   19.3098   20.4349   19.1815   17.8733   16.6891
   15.6478   14.7744   14.1245   15.0836   14.6295   14.4243
   14.3460   14.3055   14.2766   14.2764   14.3941   14.7954
   15.4740   16.3190   17.2824   18.3507   19.5218   20.7953
   20.2265   18.9256   17.7407   16.6891   15.7908   15.0836
   16.1891   15.6270   15.2863   15.1179   15.0442   15.0208
   15.0471   15.1688   15.4740   16.0196   16.7728   17.6787
   18.7047   19.8349   21.0601   21.3224   20.0877   18.9256
   17.8733   16.9517   16.1891   17.4208   16.7728   16.3190
   16.0506   15.9206   15.8831   15.9206   16.0506   16.3190
   16.7728   17.4208   18.2355   19.1815   20.2265   21.3224
   22.2587   21.3224   20.2265   19.1815   18.2355   17.4208
   18.7194   18.0157   17.4831   17.1306   16.9376   16.8694
   16.9015   17.0326   17.2824   17.6787   18.2355   18.9406
   19.7564   20.6032   21.2512   21.3224   21.0601   20.7953
   20.4349   19.5610   18.7194   19.1017   18.9150   18.5856
   18.2734   18.0669   17.9773   17.9956   18.1179   18.3507
   18.7047   19.1815   19.7564   20.3434   20.7095   20.6032
   20.2265   19.8349   19.5218   19.3098   19.1881   19.1017
   17.9773   18.0669   18.2734   18.5856   18.9150   19.1017
   19.1881   19.3098   19.5218   19.8349   20.2265   20.6032
   20.7095   20.3434   19.7564   19.1815   18.7047   18.3507
   18.1179   17.9956   17.9773   16.8694   16.9376   17.1306
   17.4831   18.0157   18.7194   19.5610   20.4349   20.7953
   21.0601   21.3224   21.2512   20.6032   19.7564   18.9406
   18.2355   17.6787   17.2824   17.0326   16.9015   16.8694
   15.8831   15.9206   16.0506   16.3190   16.7728   17.4208
   18.2355   19.1815   20.2265   21.3224   22.2587   21.3224
   20.2265   19.1815   18.2355   17.4208   16.7728   16.3190
   16.0506   15.9206   15.8831   15.0208   15.0442   15.1179
   15.2863   15.6270   16.1891   16.9517   17.8733   18.9256
   20.0877   21.3224   21.0601   19.8349   18.7047   17.6787
   16.7728   16.0196   15.4740   15.1688   15.0471   15.0208
   14.2766   14.3055   14.3460   14.4243   14.6295   15.0836
   15.7908   16.6891   17.7407   18.9256   20.2265   20.7953
   19.5218   18.3507   17.2824   16.3190   15.4740   14.7954
   14.3941   14.2764   14.2766   13.6518   13.6982   13.7297
   13.7517   13.8165   14.1245   14.7744   15.6478   16.6891
   17.8733   19.1815   20.4349   19.3098   18.1179   17.0326
   16.0506   15.1688   14.3941   13.7881   13.6135   13.6518
   13.1720   13.2288   13.2642   13.2753   13.2655   13.3331
   13.9316   14.7744   15.7908   16.9517   18.2355   19.5610
   19.1881   17.9956   16.9015   15.9206   15.0471   14.2764
   13.6135   13.1073   13.1720   12.8973   12.9626   13.0163
   13.0560   13.0860   13.1251   13.3331   14.1245   15.0836
   16.1891   17.4208   18.7194   19.1017   17.9773   16.8694
   15.8831   15.0208   14.2766   13.6518   13.1720   12.8973
   13.0570   13.1073   13.1822   13.2517   13.2908   13.3331
   13.5968   14.3110   15.2606   16.3638   17.5967   18.9406
   20.1691   19.1050   17.9368   16.8694   15.8984   15.0168
   14.2226   13.5253   13.0570   13.1073   13.1720   13.2288
   13.2642   13.2753   13.2655   13.3331   13.9316   14.7744
   15.7908   16.9517   18.2355   19.5610   19.1881   17.9956
   16.9015   15.9206   15.0471   14.2764   13.6135   13.1073
   13.1822   13.2288   13.2765   13.3008   13.2999   13.2753
   13.2908   13.8165   14.5364   15.4310   16.4850   17.6787
   18.9649   19.3628   18.1784   17.0326   16.0113   15.1179
   14.3477   13.6973   13.1822   13.2517   13.2642   13.3008
   13.3135   13.3008   13.2642   13.2517   13.7612   14.4243
   15.2314   16.1856   17.2824   18.4989   19.4876   18.4989
   17.2824   16.1856   15.2314   14.4243   13.7612   13.2517
   13.2908   13.2753   13.2999   13.3008   13.2765   13.2288
   13.1822   13.6973   14.3477   15.1179   16.0113   17.0326
   18.1784   19.3628   18.9649   17.6787   16.4850   15.4310
   14.5364   13.8165   13.2908   13.3331   13.2655   13.2753
   13.2642   13.2288   13.1720   13.1073   13.6135   14.2764
   15.0471   15.9206   16.9015   17.9956   19.1881   19.5610
   18.2355   16.9517   15.7908   14.7744   13.9316   13.3331
   13.5968   13.3331   13.2908   13.2517   13.1822   13.1073
   13.0570   13.5253   14.2226   15.0168   15.8984   16.8694
   17.9368   19.1050   20.1691   18.9406   17.5967   16.3638
   15.2606   14.3110   13.5968   14.3110   13.9316   13.8165
   13.7612   13.6973   13.6135   13.5253   13.6250   14.2710
   15.0728   15.9639   16.9376   17.9956   19.1430   20.3753
   19.7564   18.3978   17.1414   16.0133   15.0457   14.3110
   15.2606   14.7744   14.5364   14.4243   14.3477   14.2764
   14.2226   14.2710   14.6327   15.3181   16.1712   17.1306
   18.1784   19.3098   20.5236   20.6032   19.3149   18.0850
   16.9717   16.0133   15.2606   16.3638   15.7908   15.4310
   15.2314   15.1179   15.0471   15.0168   15.0728   15.3181
   15.8344   16.5807   17.4831   18.4989   19.6074   20.7953
   21.2512   20.2780   19.1527   18.0850   17.1414   16.3638
   17.5967   16.9517   16.4850   16.1856   16.0113   15.9206
   15.8984   15.9639   16.1712   16.5807   17.2070   18.0157
   18.9649   20.0234   21.1309   21.3224   21.0799   20.2780
   19.3149   18.3978   17.5967   18.9406   18.2355   17.6787
   17.2824   17.0326   16.9015   16.8694   16.9376   17.1306
   17.4831   18.0157   18.7194   19.5610   20.4349   20.7953
   21.0601   21.3224   21.2512   20.6032   19.7564   18.9406
   20.1691   19.5610   18.9649   18.4989   18.1784   17.9956
   17.9368   17.9956   18.1784   18.4989   18.9649   19.5610