
     Program PWSCF v.7.0 starts on  2Feb2022 at  4: 6:51 

     This program is part of the open-source Quantum ESPRESSO suite
     for quantum simulation of materials; please cite
         "P. Giannozzi et al., J. Phys.:Condens. Matter 21 395502 (2009);
         "P. Giannozzi et al., J. Phys.:Condens. Matter 29 465901 (2017);
         "P. Giannozzi et al., J. Chem. Phys. 152 154105 (2020);
          URL http://www.quantum-espresso.org", 
     in publications or presentations arising from this work. More details at
     http://www.quantum-espresso.org/quote

     Parallel version (MPI), running on     1 processors

     MPI processes distributed on     1 nodes
     449 MiB available memory on the printing compute node when the environment starts

     Reading input from nacl-vc_relax.in

     Current dimensions of program PWSCF are:
     Max number of different atomic species (ntypx) = 10
     Max number of k-points (npk) =  40000
     Max angular momentum in pseudopotentials (lmaxx) =  4

     Subspace diagonalization in iterative solution of the eigenvalue problem:
     a serial algorithm will be used


     G-vector sticks info
     --------------------
     sticks:   dense  smooth     PW     G-vecs:    dense   smooth      PW
     Sum        2299     769    241                73001    14163    2397

     Using Slab Decomposition



     bravais-lattice index     =            2
     lattice parameter (alat)  =      10.5710  a.u.
     unit-cell volume          =     295.3168 (a.u.)^3
     number of atoms/cell      =            2
     number of atomic types    =            2
     number of electrons       =        16.00
     number of Kohn-Sham states=            8
     kinetic-energy cutoff     =      50.0000  Ry
     charge density cutoff     =     600.0000  Ry
     scf convergence threshold =      1.0E-10
     mixing beta               =       0.7000
     number of iterations used =            8  plain     mixing
     energy convergence thresh.=      1.0E-04
     force convergence thresh. =      1.0E-03
     press convergence thresh. =      5.0E-01
     Exchange-correlation=  SLA  PW   PBX  PBC
                           (   1   4   3   4   0   0   0)
     nstep                     =           50


     celldm(1)=  10.571000  celldm(2)=   0.000000  celldm(3)=   0.000000
     celldm(4)=   0.000000  celldm(5)=   0.000000  celldm(6)=   0.000000

     crystal axes: (cart. coord. in units of alat)
               a(1) = (  -0.500000   0.000000   0.500000 )  
               a(2) = (   0.000000   0.500000   0.500000 )  
               a(3) = (  -0.500000   0.500000   0.000000 )  

     reciprocal axes: (cart. coord. in units 2 pi/alat)
               b(1) = ( -1.000000 -1.000000  1.000000 )  
               b(2) = (  1.000000  1.000000  1.000000 )  
               b(3) = ( -1.000000  1.000000 -1.000000 )  


     PseudoPot. # 1 for Na read from file:
     /home/user/pseudo_dir/na_pbe_v1.5.uspp.F.UPF
     MD5 check sum: 44600605ef58000f06b90626533354dc
     Pseudo is Ultrasoft, Zval =  9.0
     Generated by new atomic code, or converted to UPF format
     Using radial grid of  819 points,  5 beta functions with: 
                l(1) =   0
                l(2) =   0
                l(3) =   1
                l(4) =   1
                l(5) =   2
     Q(r) pseudized with  8 coefficients,  rinner =    1.250   1.250   1.250
                                                       1.250   1.250

     PseudoPot. # 2 for Cl read from file:
     /home/user/pseudo_dir/cl_pbe_v1.4.uspp.F.UPF
     MD5 check sum: fc6f6913ecf08c9257cb748ef0700058
     Pseudo is Ultrasoft + core correction, Zval =  7.0
     Generated by new atomic code, or converted to UPF format
     Using radial grid of  909 points,  6 beta functions with: 
                l(1) =   0
                l(2) =   0
                l(3) =   1
                l(4) =   1
                l(5) =   2
                l(6) =   2
     Q(r) pseudized with  8 coefficients,  rinner =    1.300   1.300   1.300
                                                       1.300   1.300

     atomic species   valence    mass     pseudopotential
        Na             9.00    22.98980     Na( 1.00)
        Cl             7.00    35.45300     Cl( 1.00)

     48 Sym. Ops., with inversion, found


                                    s                        frac. trans.

      isym =  1     identity                                     

 cryst.   s( 1) = (     1          0          0      )
                  (     0          1          0      )
                  (     0          0          1      )

 cart.    s( 1) = (  1.0000000  0.0000000  0.0000000 )
                  (  0.0000000  1.0000000  0.0000000 )
                  (  0.0000000  0.0000000  1.0000000 )


      isym =  2     180 deg rotation - cart. axis [0,0,1]        

 cryst.   s( 2) = (     0          1         -1      )
                  (     1          0         -1      )
                  (     0          0         -1      )

 cart.    s( 2) = ( -1.0000000  0.0000000  0.0000000 )
                  (  0.0000000 -1.0000000  0.0000000 )
                  (  0.0000000  0.0000000  1.0000000 )


      isym =  3     180 deg rotation - cart. axis [0,1,0]        

 cryst.   s( 3) = (    -1          0          0      )
                  (    -1          0          1      )
                  (    -1          1          0      )

 cart.    s( 3) = ( -1.0000000  0.0000000  0.0000000 )
                  (  0.0000000  1.0000000  0.0000000 )
                  (  0.0000000  0.0000000 -1.0000000 )


      isym =  4     180 deg rotation - cart. axis [1,0,0]        

 cryst.   s( 4) = (     0         -1          1      )
                  (     0         -1          0      )
                  (     1         -1          0      )

 cart.    s( 4) = (  1.0000000  0.0000000  0.0000000 )
                  (  0.0000000 -1.0000000  0.0000000 )
                  (  0.0000000  0.0000000 -1.0000000 )


      isym =  5     180 deg rotation - cart. axis [1,1,0]        

 cryst.   s( 5) = (     0         -1          0      )
                  (    -1          0          0      )
                  (     0          0         -1      )

 cart.    s( 5) = (  0.0000000  1.0000000  0.0000000 )
                  (  1.0000000  0.0000000  0.0000000 )
                  (  0.0000000  0.0000000 -1.0000000 )


      isym =  6     180 deg rotation - cart. axis [1,-1,0]       

 cryst.   s( 6) = (    -1          0          1      )
                  (     0         -1          1      )
                  (     0          0          1      )

 cart.    s( 6) = (  0.0000000 -1.0000000  0.0000000 )
                  ( -1.0000000  0.0000000  0.0000000 )
                  (  0.0000000  0.0000000 -1.0000000 )


      isym =  7      90 deg rotation - cart. axis [0,0,-1]       

 cryst.   s( 7) = (     0          1          0      )
                  (     0          1         -1      )
                  (    -1          1          0      )

 cart.    s( 7) = (  0.0000000  1.0000000  0.0000000 )
                  ( -1.0000000  0.0000000  0.0000000 )
                  (  0.0000000  0.0000000  1.0000000 )


      isym =  8      90 deg rotation - cart. axis [0,0,1]        

 cryst.   s( 8) = (     1          0         -1      )
                  (     1          0          0      )
                  (     1         -1          0      )

 cart.    s( 8) = (  0.0000000 -1.0000000  0.0000000 )
                  (  1.0000000  0.0000000  0.0000000 )
                  (  0.0000000  0.0000000  1.0000000 )


      isym =  9     180 deg rotation - cart. axis [1,0,1]        

 cryst.   s( 9) = (    -1          0          0      )
                  (     0          0         -1      )
                  (     0         -1          0      )

 cart.    s( 9) = (  0.0000000  0.0000000  1.0000000 )
                  (  0.0000000 -1.0000000  0.0000000 )
                  (  1.0000000  0.0000000  0.0000000 )


      isym = 10     180 deg rotation - cart. axis [-1,0,1]       

 cryst.   s(10) = (     1          0          0      )
                  (     1         -1          0      )
                  (     1          0         -1      )

 cart.    s(10) = (  0.0000000  0.0000000 -1.0000000 )
                  (  0.0000000 -1.0000000  0.0000000 )
                  ( -1.0000000  0.0000000  0.0000000 )


      isym = 11      90 deg rotation - cart. axis [0,1,0]        

 cryst.   s(11) = (     0          1         -1      )
                  (    -1          1          0      )
                  (     0          1          0      )

 cart.    s(11) = (  0.0000000  0.0000000  1.0000000 )
                  (  0.0000000  1.0000000  0.0000000 )
                  ( -1.0000000  0.0000000  0.0000000 )


      isym = 12      90 deg rotation - cart. axis [0,-1,0]       

 cryst.   s(12) = (     0         -1          1      )
                  (     0          0          1      )
                  (    -1          0          1      )

 cart.    s(12) = (  0.0000000  0.0000000 -1.0000000 )
                  (  0.0000000  1.0000000  0.0000000 )
                  (  1.0000000  0.0000000  0.0000000 )


      isym = 13     180 deg rotation - cart. axis [0,1,1]        

 cryst.   s(13) = (    -1          1          0      )
                  (     0          1          0      )
                  (     0          1         -1      )

 cart.    s(13) = ( -1.0000000  0.0000000  0.0000000 )
                  (  0.0000000  0.0000000  1.0000000 )
                  (  0.0000000  1.0000000  0.0000000 )


      isym = 14     180 deg rotation - cart. axis [0,1,-1]       

 cryst.   s(14) = (     0          0         -1      )
                  (     0         -1          0      )
                  (    -1          0          0      )

 cart.    s(14) = ( -1.0000000  0.0000000  0.0000000 )
                  (  0.0000000  0.0000000 -1.0000000 )
                  (  0.0000000 -1.0000000  0.0000000 )


      isym = 15      90 deg rotation - cart. axis [-1,0,0]       

 cryst.   s(15) = (     0          0          1      )
                  (    -1          0          1      )
                  (     0         -1          1      )

 cart.    s(15) = (  1.0000000  0.0000000  0.0000000 )
                  (  0.0000000  0.0000000  1.0000000 )
                  (  0.0000000 -1.0000000  0.0000000 )


      isym = 16      90 deg rotation - cart. axis [1,0,0]        

 cryst.   s(16) = (     1         -1          0      )
                  (     1          0         -1      )
                  (     1          0          0      )

 cart.    s(16) = (  1.0000000  0.0000000  0.0000000 )
                  (  0.0000000  0.0000000 -1.0000000 )
                  (  0.0000000  1.0000000  0.0000000 )


      isym = 17     120 deg rotation - cart. axis [-1,-1,-1]     

 cryst.   s(17) = (    -1          0          1      )
                  (    -1          1          0      )
                  (    -1          0          0      )

 cart.    s(17) = (  0.0000000  1.0000000  0.0000000 )
                  (  0.0000000  0.0000000  1.0000000 )
                  (  1.0000000  0.0000000  0.0000000 )


      isym = 18     120 deg rotation - cart. axis [-1,1,1]       

 cryst.   s(18) = (     0          1          0      )
                  (     0          0          1      )
                  (     1          0          0      )

 cart.    s(18) = (  0.0000000 -1.0000000  0.0000000 )
                  (  0.0000000  0.0000000  1.0000000 )
                  ( -1.0000000  0.0000000  0.0000000 )


      isym = 19     120 deg rotation - cart. axis [1,1,-1]       

 cryst.   s(19) = (     1          0         -1      )
                  (     0          0         -1      )
                  (     0          1         -1      )

 cart.    s(19) = (  0.0000000  1.0000000  0.0000000 )
                  (  0.0000000  0.0000000 -1.0000000 )
                  ( -1.0000000  0.0000000  0.0000000 )


      isym = 20     120 deg rotation - cart. axis [1,-1,1]       

 cryst.   s(20) = (     0         -1          0      )
                  (     1         -1          0      )
                  (     0         -1          1      )

 cart.    s(20) = (  0.0000000 -1.0000000  0.0000000 )
                  (  0.0000000  0.0000000 -1.0000000 )
                  (  1.0000000  0.0000000  0.0000000 )


      isym = 21     120 deg rotation - cart. axis [1,1,1]        

 cryst.   s(21) = (     0          0         -1      )
                  (     0          1         -1      )
                  (     1          0         -1      )

 cart.    s(21) = (  0.0000000  0.0000000  1.0000000 )
                  (  1.0000000  0.0000000  0.0000000 )
                  (  0.0000000  1.0000000  0.0000000 )


      isym = 22     120 deg rotation - cart. axis [-1,1,-1]      

 cryst.   s(22) = (    -1          1          0      )
                  (    -1          0          0      )
                  (    -1          0          1      )

 cart.    s(22) = (  0.0000000  0.0000000  1.0000000 )
                  ( -1.0000000  0.0000000  0.0000000 )
                  (  0.0000000 -1.0000000  0.0000000 )


      isym = 23     120 deg rotation - cart. axis [1,-1,-1]      

 cryst.   s(23) = (     0          0          1      )
                  (     1          0          0      )
                  (     0          1          0      )

 cart.    s(23) = (  0.0000000  0.0000000 -1.0000000 )
                  ( -1.0000000  0.0000000  0.0000000 )
                  (  0.0000000  1.0000000  0.0000000 )


      isym = 24     120 deg rotation - cart. axis [-1,-1,1]      

 cryst.   s(24) = (     1         -1          0      )
                  (     0         -1          1      )
                  (     0         -1          0      )

 cart.    s(24) = (  0.0000000  0.0000000 -1.0000000 )
                  (  1.0000000  0.0000000  0.0000000 )
                  (  0.0000000 -1.0000000  0.0000000 )


      isym = 25     inversion                                    

 cryst.   s(25) = (    -1          0          0      )
                  (     0         -1          0      )
                  (     0          0         -1      )

 cart.    s(25) = ( -1.0000000  0.0000000  0.0000000 )
                  (  0.0000000 -1.0000000  0.0000000 )
                  (  0.0000000  0.0000000 -1.0000000 )


      isym = 26     inv. 180 deg rotation - cart. axis [0,0,1]   

 cryst.   s(26) = (     0         -1          1      )
                  (    -1          0          1      )
                  (     0          0          1      )

 cart.    s(26) = (  1.0000000  0.0000000  0.0000000 )
                  (  0.0000000  1.0000000  0.0000000 )
                  (  0.0000000  0.0000000 -1.0000000 )


      isym = 27     inv. 180 deg rotation - cart. axis [0,1,0]   

 cryst.   s(27) = (     1          0          0      )
                  (     1          0         -1      )
                  (     1         -1          0      )

 cart.    s(27) = (  1.0000000  0.0000000  0.0000000 )
                  (  0.0000000 -1.0000000  0.0000000 )
                  (  0.0000000  0.0000000  1.0000000 )


      isym = 28     inv. 180 deg rotation - cart. axis [1,0,0]   

 cryst.   s(28) = (     0          1         -1      )
                  (     0          1          0      )
                  (    -1          1          0      )

 cart.    s(28) = ( -1.0000000  0.0000000  0.0000000 )
                  (  0.0000000  1.0000000  0.0000000 )
                  (  0.0000000  0.0000000  1.0000000 )


      isym = 29     inv. 180 deg rotation - cart. axis [1,1,0]   

 cryst.   s(29) = (     0          1          0      )
                  (     1          0          0      )
                  (     0          0          1      )

 cart.    s(29) = (  0.0000000 -1.0000000  0.0000000 )
                  ( -1.0000000  0.0000000  0.0000000 )
                  (  0.0000000  0.0000000  1.0000000 )


      isym = 30     inv. 180 deg rotation - cart. axis [1,-1,0]  

 cryst.   s(30) = (     1          0         -1      )
                  (     0          1         -1      )
                  (     0          0         -1      )

 cart.    s(30) = (  0.0000000  1.0000000  0.0000000 )
                  (  1.0000000  0.0000000  0.0000000 )
                  (  0.0000000  0.0000000  1.0000000 )


      isym = 31     inv.  90 deg rotation - cart. axis [0,0,-1]  

 cryst.   s(31) = (     0         -1          0      )
                  (     0         -1          1      )
                  (     1         -1          0      )

 cart.    s(31) = (  0.0000000 -1.0000000  0.0000000 )
                  (  1.0000000  0.0000000  0.0000000 )
                  (  0.0000000  0.0000000 -1.0000000 )


      isym = 32     inv.  90 deg rotation - cart. axis [0,0,1]   

 cryst.   s(32) = (    -1          0          1      )
                  (    -1          0          0      )
                  (    -1          1          0      )

 cart.    s(32) = (  0.0000000  1.0000000  0.0000000 )
                  ( -1.0000000  0.0000000  0.0000000 )
                  (  0.0000000  0.0000000 -1.0000000 )


      isym = 33     inv. 180 deg rotation - cart. axis [1,0,1]   

 cryst.   s(33) = (     1          0          0      )
                  (     0          0          1      )
                  (     0          1          0      )

 cart.    s(33) = (  0.0000000  0.0000000 -1.0000000 )
                  (  0.0000000  1.0000000  0.0000000 )
                  ( -1.0000000  0.0000000  0.0000000 )


      isym = 34     inv. 180 deg rotation - cart. axis [-1,0,1]  

 cryst.   s(34) = (    -1          0          0      )
                  (    -1          1          0      )
                  (    -1          0          1      )

 cart.    s(34) = (  0.0000000  0.0000000  1.0000000 )
                  (  0.0000000  1.0000000  0.0000000 )
                  (  1.0000000  0.0000000  0.0000000 )


      isym = 35     inv.  90 deg rotation - cart. axis [0,1,0]   

 cryst.   s(35) = (     0         -1          1      )
                  (     1         -1          0      )
                  (     0         -1          0      )

 cart.    s(35) = (  0.0000000  0.0000000 -1.0000000 )
                  (  0.0000000 -1.0000000  0.0000000 )
                  (  1.0000000  0.0000000  0.0000000 )


      isym = 36     inv.  90 deg rotation - cart. axis [0,-1,0]  

 cryst.   s(36) = (     0          1         -1      )
                  (     0          0         -1      )
                  (     1          0         -1      )

 cart.    s(36) = (  0.0000000  0.0000000  1.0000000 )
                  (  0.0000000 -1.0000000  0.0000000 )
                  ( -1.0000000  0.0000000  0.0000000 )


      isym = 37     inv. 180 deg rotation - cart. axis [0,1,1]   

 cryst.   s(37) = (     1         -1          0      )
                  (     0         -1          0      )
                  (     0         -1          1      )

 cart.    s(37) = (  1.0000000  0.0000000  0.0000000 )
                  (  0.0000000  0.0000000 -1.0000000 )
                  (  0.0000000 -1.0000000  0.0000000 )


      isym = 38     inv. 180 deg rotation - cart. axis [0,1,-1]  

 cryst.   s(38) = (     0          0          1      )
                  (     0          1          0      )
                  (     1          0          0      )

 cart.    s(38) = (  1.0000000  0.0000000  0.0000000 )
                  (  0.0000000  0.0000000  1.0000000 )
                  (  0.0000000  1.0000000  0.0000000 )


      isym = 39     inv.  90 deg rotation - cart. axis [-1,0,0]  

 cryst.   s(39) = (     0          0         -1      )
                  (     1          0         -1      )
                  (     0          1         -1      )

 cart.    s(39) = ( -1.0000000  0.0000000  0.0000000 )
                  (  0.0000000  0.0000000 -1.0000000 )
                  (  0.0000000  1.0000000  0.0000000 )


      isym = 40     inv.  90 deg rotation - cart. axis [1,0,0]   

 cryst.   s(40) = (    -1          1          0      )
                  (    -1          0          1      )
                  (    -1          0          0      )

 cart.    s(40) = ( -1.0000000  0.0000000  0.0000000 )
                  (  0.0000000  0.0000000  1.0000000 )
                  (  0.0000000 -1.0000000  0.0000000 )


      isym = 41     inv. 120 deg rotation - cart. axis [-1,-1,-1]

 cryst.   s(41) = (     1          0         -1      )
                  (     1         -1          0      )
                  (     1          0          0      )

 cart.    s(41) = (  0.0000000 -1.0000000  0.0000000 )
                  (  0.0000000  0.0000000 -1.0000000 )
                  ( -1.0000000  0.0000000  0.0000000 )


      isym = 42     inv. 120 deg rotation - cart. axis [-1,1,1]  

 cryst.   s(42) = (     0         -1          0      )
                  (     0          0         -1      )
                  (    -1          0          0      )

 cart.    s(42) = (  0.0000000  1.0000000  0.0000000 )
                  (  0.0000000  0.0000000 -1.0000000 )
                  (  1.0000000  0.0000000  0.0000000 )


      isym = 43     inv. 120 deg rotation - cart. axis [1,1,-1]  

 cryst.   s(43) = (    -1          0          1      )
                  (     0          0          1      )
                  (     0         -1          1      )

 cart.    s(43) = (  0.0000000 -1.0000000  0.0000000 )
                  (  0.0000000  0.0000000  1.0000000 )
                  (  1.0000000  0.0000000  0.0000000 )


      isym = 44     inv. 120 deg rotation - cart. axis [1,-1,1]  

 cryst.   s(44) = (     0          1          0      )
                  (    -1          1          0      )
                  (     0          1         -1      )

 cart.    s(44) = (  0.0000000  1.0000000  0.0000000 )
                  (  0.0000000  0.0000000  1.0000000 )
                  ( -1.0000000  0.0000000  0.0000000 )


      isym = 45     inv. 120 deg rotation - cart. axis [1,1,1]   

 cryst.   s(45) = (     0          0          1      )
                  (     0         -1          1      )
                  (    -1          0          1      )

 cart.    s(45) = (  0.0000000  0.0000000 -1.0000000 )
                  ( -1.0000000  0.0000000  0.0000000 )
                  (  0.0000000 -1.0000000  0.0000000 )


      isym = 46     inv. 120 deg rotation - cart. axis [-1,1,-1] 

 cryst.   s(46) = (     1         -1          0      )
                  (     1          0          0      )
                  (     1          0         -1      )

 cart.    s(46) = (  0.0000000  0.0000000 -1.0000000 )
                  (  1.0000000  0.0000000  0.0000000 )
                  (  0.0000000  1.0000000  0.0000000 )


      isym = 47     inv. 120 deg rotation - cart. axis [1,-1,-1] 

 cryst.   s(47) = (     0          0         -1      )
                  (    -1          0          0      )
                  (     0         -1          0      )

 cart.    s(47) = (  0.0000000  0.0000000  1.0000000 )
                  (  1.0000000  0.0000000  0.0000000 )
                  (  0.0000000 -1.0000000  0.0000000 )


      isym = 48     inv. 120 deg rotation - cart. axis [-1,-1,1] 

 cryst.   s(48) = (    -1          1          0      )
                  (     0          1         -1      )
                  (     0          1          0      )

 cart.    s(48) = (  0.0000000  0.0000000  1.0000000 )
                  ( -1.0000000  0.0000000  0.0000000 )
                  (  0.0000000  1.0000000  0.0000000 )


     point group O_h (m-3m) 
     there are 10 classes
     the character table:

       E     8C3   3C2   6C4   6C2'  i     8S6   3s_h  6S4   6s_d 
A_1g   1.00  1.00  1.00  1.00  1.00  1.00  1.00  1.00  1.00  1.00
A_2g   1.00  1.00  1.00 -1.00 -1.00  1.00  1.00  1.00 -1.00 -1.00
E_g    2.00 -1.00  2.00  0.00  0.00  2.00 -1.00  2.00  0.00  0.00
T_1g   3.00  0.00 -1.00  1.00 -1.00  3.00  0.00 -1.00  1.00 -1.00
T_2g   3.00  0.00 -1.00 -1.00  1.00  3.00  0.00 -1.00 -1.00  1.00
A_1u   1.00  1.00  1.00  1.00  1.00 -1.00 -1.00 -1.00 -1.00 -1.00
A_2u   1.00  1.00  1.00 -1.00 -1.00 -1.00 -1.00 -1.00  1.00  1.00
E_u    2.00 -1.00  2.00  0.00  0.00 -2.00  1.00 -2.00  0.00  0.00
T_1u   3.00  0.00 -1.00  1.00 -1.00 -3.00  0.00  1.00 -1.00  1.00
T_2u   3.00  0.00 -1.00 -1.00  1.00 -3.00  0.00  1.00  1.00 -1.00

     the symmetry operations in each class and the name of the first element:

     E        1
          identity                                               
     8C3     17   19   20   18   24   21   22   23
          120 deg rotation - cart. axis [-1,-1,-1]               
     3C2      2    4    3
          180 deg rotation - cart. axis [0,0,1]                  
     6C4      7    8   15   16   12   11
           90 deg rotation - cart. axis [0,0,-1]                 
     6C2'     5    6   14   13   10    9
          180 deg rotation - cart. axis [1,1,0]                  
     i       25
          inversion                                              
     8S6     41   43   44   42   48   45   46   47
          inv. 120 deg rotation - cart. axis [-1,-1,-1]          
     3s_h    26   28   27
          inv. 180 deg rotation - cart. axis [0,0,1]             
     6S4     31   32   39   40   36   35
          inv.  90 deg rotation - cart. axis [0,0,-1]            
     6s_d    29   30   38   37   34   33
          inv. 180 deg rotation - cart. axis [1,1,0]             

   Cartesian axes

     site n.     atom                  positions (alat units)
         1           Na  tau(   1) = (   0.0000000   0.0000000   0.0000000  )
         2           Cl  tau(   2) = (  -0.5000000   0.5000000   0.5000000  )

   Crystallographic axes

     site n.     atom                  positions (cryst. coord.)
         1           Na  tau(   1) = (  0.0000000  0.0000000  0.0000000  )
         2           Cl  tau(   2) = (  0.5000000  0.5000000  0.5000000  )

     number of k points=    10
                       cart. coord. in units 2pi/alat
        k(    1) = (   0.0000000   0.0000000   0.0000000), wk =   0.0160000
        k(    2) = (  -0.2000000   0.2000000  -0.2000000), wk =   0.1280000
        k(    3) = (  -0.4000000   0.4000000  -0.4000000), wk =   0.1280000
        k(    4) = (   0.0000000   0.4000000   0.0000000), wk =   0.0960000
        k(    5) = (  -0.2000000   0.6000000  -0.2000000), wk =   0.3840000
        k(    6) = (   0.6000000  -0.2000000   0.6000000), wk =   0.3840000
        k(    7) = (   0.4000000   0.0000000   0.4000000), wk =   0.1920000
        k(    8) = (   0.0000000   0.8000000   0.0000000), wk =   0.0960000
        k(    9) = (   0.8000000   0.0000000   0.8000000), wk =   0.1920000
        k(   10) = (   0.6000000  -0.2000000   1.0000000), wk =   0.3840000

                       cryst. coord.
        k(    1) = (   0.0000000   0.0000000   0.0000000), wk =   0.0160000
        k(    2) = (   0.0000000   0.0000000   0.2000000), wk =   0.1280000
        k(    3) = (   0.0000000   0.0000000   0.4000000), wk =   0.1280000
        k(    4) = (   0.0000000   0.2000000   0.2000000), wk =   0.0960000
        k(    5) = (   0.0000000   0.2000000   0.4000000), wk =   0.3840000
        k(    6) = (   0.0000000   0.2000000  -0.4000000), wk =   0.3840000
        k(    7) = (   0.0000000   0.2000000  -0.2000000), wk =   0.1920000
        k(    8) = (   0.0000000   0.4000000   0.4000000), wk =   0.0960000
        k(    9) = (   0.0000000   0.4000000  -0.4000000), wk =   0.1920000
        k(   10) = (   0.2000000   0.4000000  -0.4000000), wk =   0.3840000

     Dense  grid:    73001 G-vectors     FFT dimensions: (  60,  60,  60)

     Smooth grid:    14163 G-vectors     FFT dimensions: (  36,  36,  36)

     Dynamical RAM for                 wfc:       0.22 MB

     Dynamical RAM for     wfc (w. buffer):       2.37 MB

     Dynamical RAM for           str. fact:       2.23 MB

     Dynamical RAM for           local pot:       0.00 MB

     Dynamical RAM for          nlocal pot:       0.83 MB

     Dynamical RAM for                qrad:       7.86 MB

     Dynamical RAM for          rho,v,vnew:       8.29 MB

     Dynamical RAM for               rhoin:       2.76 MB

     Dynamical RAM for            rho*nmix:      17.82 MB

     Dynamical RAM for           G-vectors:       4.29 MB

     Dynamical RAM for          h,s,v(r/c):       0.01 MB

     Dynamical RAM for          <psi|beta>:       0.00 MB

     Dynamical RAM for                 psi:       0.43 MB

     Dynamical RAM for                hpsi:       0.43 MB

     Dynamical RAM for                spsi:       0.43 MB

     Dynamical RAM for      wfcinit/wfcrot:       0.49 MB

     Dynamical RAM for           addusdens:     208.30 MB

     Dynamical RAM for          addusforce:     208.86 MB

     Dynamical RAM for         addusstress:     223.90 MB

     Estimated static dynamical RAM per process >      40.20 MB

     Estimated max dynamical RAM per process >     281.92 MB

     Initial potential from superposition of free atoms

     starting charge      15.9937, renormalised to      16.0000

     negative rho (up, down):  1.484E-02 0.000E+00
     Starting wfcs are    9 randomized atomic wfcs

     total cpu time spent up to now is        4.4 secs

     Self-consistent Calculation

     iteration #  1     ecut=    50.00 Ry     beta= 0.70
     Davidson diagonalization with overlap

---- Real-time Memory Report at c_bands before calling an iterative solver
           265 MiB given to the printing process from OS
             0 MiB allocation reported by mallinfo(arena+hblkhd)
           402 MiB available memory on the node where the printing process lives
------------------
     ethr =  1.00E-02,  avg # of iterations =  1.0

     Threshold (ethr) on eigenvalues was too large:
     Diagonalizing with lowered threshold

     Davidson diagonalization with overlap

---- Real-time Memory Report at c_bands before calling an iterative solver
           271 MiB given to the printing process from OS
             0 MiB allocation reported by mallinfo(arena+hblkhd)
           383 MiB available memory on the node where the printing process lives
------------------
     ethr =  3.74E-04,  avg # of iterations =  1.4

     negative rho (up, down):  1.533E-02 0.000E+00

     total cpu time spent up to now is        6.0 secs

     total energy              =    -128.88440535 Ry
     estimated scf accuracy    <       0.05358000 Ry

     iteration #  2     ecut=    50.00 Ry     beta= 0.70
     Davidson diagonalization with overlap

---- Real-time Memory Report at c_bands before calling an iterative solver
           284 MiB given to the printing process from OS
             0 MiB allocation reported by mallinfo(arena+hblkhd)
           370 MiB available memory on the node where the printing process lives
------------------
     ethr =  3.35E-04,  avg # of iterations =  2.0

     negative rho (up, down):  1.474E-02 0.000E+00

     total cpu time spent up to now is        7.0 secs

     total energy              =    -128.90109393 Ry
     estimated scf accuracy    <       0.01165819 Ry

     iteration #  3     ecut=    50.00 Ry     beta= 0.70
     Davidson diagonalization with overlap

---- Real-time Memory Report at c_bands before calling an iterative solver
           285 MiB given to the printing process from OS
             0 MiB allocation reported by mallinfo(arena+hblkhd)
           369 MiB available memory on the node where the printing process lives
------------------
     ethr =  7.29E-05,  avg # of iterations =  2.0

     negative rho (up, down):  1.438E-02 0.000E+00

     total cpu time spent up to now is        8.0 secs

     total energy              =    -128.90294772 Ry
     estimated scf accuracy    <       0.00029253 Ry

     iteration #  4     ecut=    50.00 Ry     beta= 0.70
     Davidson diagonalization with overlap

---- Real-time Memory Report at c_bands before calling an iterative solver
           285 MiB given to the printing process from OS
             0 MiB allocation reported by mallinfo(arena+hblkhd)
           369 MiB available memory on the node where the printing process lives
------------------
     ethr =  1.83E-06,  avg # of iterations =  2.9

     negative rho (up, down):  1.443E-02 0.000E+00

     total cpu time spent up to now is        9.0 secs

     total energy              =    -128.90306331 Ry
     estimated scf accuracy    <       0.00010606 Ry

     iteration #  5     ecut=    50.00 Ry     beta= 0.70
     Davidson diagonalization with overlap

---- Real-time Memory Report at c_bands before calling an iterative solver
           286 MiB given to the printing process from OS
             0 MiB allocation reported by mallinfo(arena+hblkhd)
           368 MiB available memory on the node where the printing process lives
------------------
     ethr =  6.63E-07,  avg # of iterations =  2.0

     negative rho (up, down):  1.447E-02 0.000E+00

     total cpu time spent up to now is       10.0 secs

     total energy              =    -128.90306556 Ry
     estimated scf accuracy    <       0.00001466 Ry

     iteration #  6     ecut=    50.00 Ry     beta= 0.70
     Davidson diagonalization with overlap

---- Real-time Memory Report at c_bands before calling an iterative solver
           286 MiB given to the printing process from OS
             0 MiB allocation reported by mallinfo(arena+hblkhd)
           368 MiB available memory on the node where the printing process lives
------------------
     ethr =  9.16E-08,  avg # of iterations =  2.8

     negative rho (up, down):  1.446E-02 0.000E+00

     total cpu time spent up to now is       11.0 secs

     total energy              =    -128.90307144 Ry
     estimated scf accuracy    <       0.00000166 Ry

     iteration #  7     ecut=    50.00 Ry     beta= 0.70
     Davidson diagonalization with overlap

---- Real-time Memory Report at c_bands before calling an iterative solver
           287 MiB given to the printing process from OS
             0 MiB allocation reported by mallinfo(arena+hblkhd)
           367 MiB available memory on the node where the printing process lives
------------------
     ethr =  1.04E-08,  avg # of iterations =  4.2

     negative rho (up, down):  1.445E-02 0.000E+00

     total cpu time spent up to now is       12.2 secs

     total energy              =    -128.90307212 Ry
     estimated scf accuracy    <       0.00000011 Ry

     iteration #  8     ecut=    50.00 Ry     beta= 0.70
     Davidson diagonalization with overlap

---- Real-time Memory Report at c_bands before calling an iterative solver
           287 MiB given to the printing process from OS
             0 MiB allocation reported by mallinfo(arena+hblkhd)
           367 MiB available memory on the node where the printing process lives
------------------
     ethr =  6.63E-10,  avg # of iterations =  2.9

     negative rho (up, down):  1.445E-02 0.000E+00

     total cpu time spent up to now is       13.2 secs

     total energy              =    -128.90307218 Ry
     estimated scf accuracy    <          1.2E-10 Ry

     iteration #  9     ecut=    50.00 Ry     beta= 0.70
     Davidson diagonalization with overlap

---- Real-time Memory Report at c_bands before calling an iterative solver
           288 MiB given to the printing process from OS
             0 MiB allocation reported by mallinfo(arena+hblkhd)
           366 MiB available memory on the node where the printing process lives
------------------
     ethr =  7.55E-13,  avg # of iterations =  6.9

     negative rho (up, down):  1.445E-02 0.000E+00

     total cpu time spent up to now is       14.6 secs

     End of self-consistent calculation

          k = 0.0000 0.0000 0.0000 (  1807 PWs)   bands (ev):

   -47.6837 -19.5994 -19.5994 -19.5994 -11.5305   1.1859   1.1859   1.1859

     occupation numbers 
     1.0000   1.0000   1.0000   1.0000   1.0000   1.0000   1.0000   1.0000

          k =-0.2000 0.2000-0.2000 (  1781 PWs)   bands (ev):

   -47.6834 -19.6108 -19.6002 -19.6002 -11.4111   0.3565   1.0854   1.0854

     occupation numbers 
     1.0000   1.0000   1.0000   1.0000   1.0000   1.0000   1.0000   1.0000

          k =-0.4000 0.4000-0.4000 (  1763 PWs)   bands (ev):

   -47.6829 -19.6290 -19.6014 -19.6014 -11.2071  -0.6601   0.9320   0.9320

     occupation numbers 
     1.0000   1.0000   1.0000   1.0000   1.0000   1.0000   1.0000   1.0000

          k = 0.0000 0.4000 0.0000 (  1764 PWs)   bands (ev):

   -47.6833 -19.6094 -19.6024 -19.6024 -11.3790   0.3495   0.9526   0.9526

     occupation numbers 
     1.0000   1.0000   1.0000   1.0000   1.0000   1.0000   1.0000   1.0000

          k =-0.2000 0.6000-0.2000 (  1765 PWs)   bands (ev):

   -47.6828 -19.6214 -19.6049 -19.6042 -11.2151  -0.3372   0.6701   0.7964

     occupation numbers 
     1.0000   1.0000   1.0000   1.0000   1.0000   1.0000   1.0000   1.0000

          k = 0.6000-0.2000 0.6000 (  1756 PWs)   bands (ev):

   -47.6827 -19.6262 -19.6082 -19.6030 -11.1445  -0.5524   0.4049   0.8233

     occupation numbers 
     1.0000   1.0000   1.0000   1.0000   1.0000   1.0000   1.0000   1.0000

          k = 0.4000 0.0000 0.4000 (  1769 PWs)   bands (ev):

   -47.6830 -19.6189 -19.6060 -19.6005 -11.2698  -0.1505   0.6342   0.9997

     occupation numbers 
     1.0000   1.0000   1.0000   1.0000   1.0000   1.0000   1.0000   1.0000

          k = 0.0000 0.8000 0.0000 (  1756 PWs)   bands (ev):

   -47.6826 -19.6204 -19.6074 -19.6074 -11.1565  -0.4459   0.6183   0.6183

     occupation numbers 
     1.0000   1.0000   1.0000   1.0000   1.0000   1.0000   1.0000   1.0000

          k = 0.8000 0.0000 0.8000 (  1748 PWs)   bands (ev):

   -47.6825 -19.6191 -19.6137 -19.6067 -11.1127  -0.3687   0.1778   0.6334

     occupation numbers 
     1.0000   1.0000   1.0000   1.0000   1.0000   1.0000   1.0000   1.0000

          k = 0.6000-0.2000 1.0000 (  1751 PWs)   bands (ev):

   -47.6826 -19.6198 -19.6119 -19.6070 -11.1252  -0.2948   0.1923   0.5786

     occupation numbers 
     1.0000   1.0000   1.0000   1.0000   1.0000   1.0000   1.0000   1.0000

     highest occupied level (ev):     1.1859

!    total energy              =    -128.90307218 Ry
     estimated scf accuracy    <          6.5E-11 Ry

     The total energy is the sum of the following terms:
     one-electron contribution =     -80.72423784 Ry
     hartree contribution      =      45.10764844 Ry
     xc contribution           =     -23.91382049 Ry
     ewald contribution        =     -69.37266230 Ry

     convergence has been achieved in   9 iterations

     negative rho (up, down):  1.445E-02 0.000E+00

     Forces acting on atoms (cartesian axes, Ry/au):

     atom    1 type  1   force =     0.00000000    0.00000000   -0.00000000
     atom    2 type  2   force =    -0.00000000   -0.00000000    0.00000000
     The non-local contrib.  to forces
     atom    1 type  1   force =     0.00000000    0.00000000   -0.00000000
     atom    2 type  2   force =     0.00000000    0.00000000   -0.00000000
     The ionic contribution  to forces
     atom    1 type  1   force =     0.00000000   -0.00000000   -0.00000000
     atom    2 type  2   force =    -0.00000000    0.00000000    0.00000000
     The local contribution  to forces
     atom    1 type  1   force =     0.00000000   -0.00000000   -0.00000000
     atom    2 type  2   force =    -0.00000000    0.00000000    0.00000000
     The core correction contribution to forces
     atom    1 type  1   force =     0.00000000    0.00000000    0.00000000
     atom    2 type  2   force =    -0.00000000    0.00000000    0.00000000
     The Hubbard contrib.    to forces
     atom    1 type  1   force =     0.00000000    0.00000000    0.00000000
     atom    2 type  2   force =     0.00000000    0.00000000    0.00000000
     The SCF correction term to forces
     atom    1 type  1   force =    -0.00000000   -0.00000000   -0.00000000
     atom    2 type  2   force =     0.00000000    0.00000000   -0.00000000

     Total force =     0.000000     Total SCF correction =     0.000000


     Computing stress (Cartesian axis) and pressure


     negative rho (up, down):  1.445E-02 0.000E+00
          total   stress  (Ry/bohr**3)                   (kbar)     P=       15.58
   0.00010593  -0.00000000   0.00000000           15.58       -0.00        0.00
  -0.00000000   0.00010593   0.00000000           -0.00       15.58        0.00
  -0.00000000   0.00000000   0.00010593           -0.00        0.00       15.58

     kinetic stress (kbar)   9437.78      0.00      0.00
                                0.00   9437.78     -0.00
                                0.00     -0.00   9437.78

     local   stress (kbar)  14473.62      0.00      0.00
                                0.00  14473.62     -0.00
                                0.00     -0.00  14473.62

     nonloc. stress (kbar) -16422.50      0.00      0.00
                                0.00 -16422.50     -0.00
                                0.00     -0.00 -16422.50

     hartree stress (kbar)   7489.77      0.00      0.00
                                0.00   7489.77     -0.00
                                0.00     -0.00   7489.77

     exc-cor stress (kbar)  -1572.85     -0.00      0.00
                               -0.00  -1572.85     -0.00
                                0.00     -0.00  -1572.85

     corecor stress (kbar)  -1871.45      0.00      0.00
                                0.00  -1871.45      0.00
                                0.00      0.00  -1871.45

     ewald   stress (kbar) -11518.78     -0.00     -0.00
                               -0.00 -11518.78      0.00
                               -0.00      0.00 -11518.78

     hubbard stress (kbar)      0.00      0.00      0.00
                                0.00      0.00      0.00
                                0.00      0.00      0.00

     DFT-D   stress (kbar)      0.00      0.00      0.00
                                0.00      0.00      0.00
                                0.00      0.00      0.00

     XDM     stress (kbar)      0.00      0.00      0.00
                                0.00      0.00      0.00
                                0.00      0.00      0.00

     dft-nl  stress (kbar)      0.00      0.00      0.00
                                0.00      0.00      0.00
                                0.00      0.00      0.00

     TS-vdW  stress (kbar)      0.00      0.00      0.00
                                0.00      0.00      0.00
                                0.00      0.00      0.00


                                0.00      0.00      0.00
                                0.00      0.00      0.00


                                0.00      0.00      0.00


     BFGS Geometry Optimization
     Energy error            =      0.0E+00 Ry
     Gradient error          =      2.5E-32 Ry/Bohr
     Cell gradient error     =      1.6E+01 kbar

     number of scf cycles    =   1
     number of bfgs steps    =   0

     enthalpy           new  =    -128.9030721847 Ry

     new trust radius        =       0.0091023002 bohr
ibrav =      2
 celldm(1) =     10.59899582
Input lattice vectors:
    -0.50132418     0.00000000     0.50132418
     0.00000000     0.50132418     0.50132418
    -0.50132418     0.50132418     0.00000000
New lattice vectors in INITIAL alat:
    -0.50132418     0.00000000     0.50132418
     0.00000000     0.50132418     0.50132418
    -0.50132418     0.50132418     0.00000000
New lattice vectors in NEW alat (for information only):
    -0.50000000     0.00000000     0.50000000
     0.00000000     0.50000000     0.50000000
    -0.50000000     0.50000000     0.00000000
Discrepancy in bohr =     0.000000    0.000000    0.000000
     new conv_thr            =            1.0E-10 Ry

     new unit-cell volume =    297.66939 a.u.^3 (    44.11005 Ang^3 )
     density =      2.20010 g/cm^3

CELL_PARAMETERS (alat= 10.57100000)
  -0.501324180   0.000000000   0.501324180
   0.000000000   0.501324180   0.501324180
  -0.501324180   0.501324180   0.000000000

ATOMIC_POSITIONS (crystal)
Na           -0.0000000000        0.0000000000        0.0000000000
Cl            0.5000000000        0.5000000000        0.5000000000



     Writing config-only to output data dir ./nacl.save/
     NEW-OLD atomic charge density approx. for the potential

     negative rho (up, down):  1.456E-02 0.000E+00
     extrapolated charge   16.12640, renormalised to   16.00000

     total cpu time spent up to now is       27.3 secs

     Self-consistent Calculation

     iteration #  1     ecut=    50.00 Ry     beta= 0.70
     Davidson diagonalization with overlap

---- Real-time Memory Report at c_bands before calling an iterative solver
           304 MiB given to the printing process from OS
             0 MiB allocation reported by mallinfo(arena+hblkhd)
           369 MiB available memory on the node where the printing process lives
------------------
     ethr =  1.00E-06,  avg # of iterations =  3.0

     negative rho (up, down):  1.433E-02 0.000E+00

     total cpu time spent up to now is       28.4 secs

     total energy              =    -128.89972718 Ry
     estimated scf accuracy    <       0.00198257 Ry

     iteration #  2     ecut=    50.00 Ry     beta= 0.70
     Davidson diagonalization with overlap

---- Real-time Memory Report at c_bands before calling an iterative solver
           304 MiB given to the printing process from OS
             0 MiB allocation reported by mallinfo(arena+hblkhd)
           365 MiB available memory on the node where the printing process lives
------------------
     ethr =  1.24E-05,  avg # of iterations =  3.0

     negative rho (up, down):  1.438E-02 0.000E+00

     total cpu time spent up to now is       29.5 secs

     total energy              =    -128.90339335 Ry
     estimated scf accuracy    <       0.00328784 Ry

     iteration #  3     ecut=    50.00 Ry     beta= 0.70
     Davidson diagonalization with overlap

---- Real-time Memory Report at c_bands before calling an iterative solver
           304 MiB given to the printing process from OS
             0 MiB allocation reported by mallinfo(arena+hblkhd)
           378 MiB available memory on the node where the printing process lives
------------------
     ethr =  1.24E-05,  avg # of iterations =  2.0

     negative rho (up, down):  1.440E-02 0.000E+00

     total cpu time spent up to now is       30.5 secs

     total energy              =    -128.90344461 Ry
     estimated scf accuracy    <       0.00070217 Ry

     iteration #  4     ecut=    50.00 Ry     beta= 0.70
     Davidson diagonalization with overlap

---- Real-time Memory Report at c_bands before calling an iterative solver
           304 MiB given to the printing process from OS
             0 MiB allocation reported by mallinfo(arena+hblkhd)
           377 MiB available memory on the node where the printing process lives
------------------
     ethr =  4.39E-06,  avg # of iterations =  1.0

     negative rho (up, down):  1.442E-02 0.000E+00

     total cpu time spent up to now is       31.5 secs

     total energy              =    -128.90332893 Ry
     estimated scf accuracy    <       0.00036787 Ry

     iteration #  5     ecut=    50.00 Ry     beta= 0.70
     Davidson diagonalization with overlap

---- Real-time Memory Report at c_bands before calling an iterative solver
           304 MiB given to the printing process from OS
             0 MiB allocation reported by mallinfo(arena+hblkhd)
           377 MiB available memory on the node where the printing process lives
------------------
     ethr =  2.30E-06,  avg # of iterations =  1.0

     negative rho (up, down):  1.444E-02 0.000E+00

     total cpu time spent up to now is       32.4 secs

     total energy              =    -128.90328651 Ry
     estimated scf accuracy    <       0.00010706 Ry

     iteration #  6     ecut=    50.00 Ry     beta= 0.70
     Davidson diagonalization with overlap

---- Real-time Memory Report at c_bands before calling an iterative solver
           304 MiB given to the printing process from OS
             0 MiB allocation reported by mallinfo(arena+hblkhd)
           376 MiB available memory on the node where the printing process lives
------------------
     ethr =  6.69E-07,  avg # of iterations =  2.0

     negative rho (up, down):  1.445E-02 0.000E+00

     total cpu time spent up to now is       33.4 secs

     total energy              =    -128.90329944 Ry
     estimated scf accuracy    <       0.00000531 Ry

     iteration #  7     ecut=    50.00 Ry     beta= 0.70
     Davidson diagonalization with overlap

---- Real-time Memory Report at c_bands before calling an iterative solver
           304 MiB given to the printing process from OS
             0 MiB allocation reported by mallinfo(arena+hblkhd)
           376 MiB available memory on the node where the printing process lives
------------------
     ethr =  3.32E-08,  avg # of iterations =  2.7

     negative rho (up, down):  1.445E-02 0.000E+00

     total cpu time spent up to now is       34.4 secs

     total energy              =    -128.90330224 Ry
     estimated scf accuracy    <       0.00000033 Ry

     iteration #  8     ecut=    50.00 Ry     beta= 0.70
     Davidson diagonalization with overlap

---- Real-time Memory Report at c_bands before calling an iterative solver
           304 MiB given to the printing process from OS
             0 MiB allocation reported by mallinfo(arena+hblkhd)
           376 MiB available memory on the node where the printing process lives
------------------
     ethr =  2.05E-09,  avg # of iterations =  3.3

     negative rho (up, down):  1.444E-02 0.000E+00

     total cpu time spent up to now is       35.5 secs

     total energy              =    -128.90330097 Ry
     estimated scf accuracy    <       0.00000306 Ry

     iteration #  9     ecut=    50.00 Ry     beta= 0.70
     Davidson diagonalization with overlap

---- Real-time Memory Report at c_bands before calling an iterative solver
           304 MiB given to the printing process from OS
             0 MiB allocation reported by mallinfo(arena+hblkhd)
           375 MiB available memory on the node where the printing process lives
------------------
     ethr =  2.05E-09,  avg # of iterations =  2.9

     negative rho (up, down):  1.444E-02 0.000E+00

     total cpu time spent up to now is       36.6 secs

     total energy              =    -128.90330149 Ry
     estimated scf accuracy    <       0.00000003 Ry

     iteration # 10     ecut=    50.00 Ry     beta= 0.70
     Davidson diagonalization with overlap

---- Real-time Memory Report at c_bands before calling an iterative solver
           304 MiB given to the printing process from OS
             0 MiB allocation reported by mallinfo(arena+hblkhd)
           375 MiB available memory on the node where the printing process lives
------------------
     ethr =  1.70E-10,  avg # of iterations =  2.0

     negative rho (up, down):  1.444E-02 0.000E+00

     total cpu time spent up to now is       37.6 secs

     total energy              =    -128.90330148 Ry
     estimated scf accuracy    <       0.00000003 Ry

     iteration # 11     ecut=    50.00 Ry     beta= 0.70
     Davidson diagonalization with overlap

---- Real-time Memory Report at c_bands before calling an iterative solver
           304 MiB given to the printing process from OS
             0 MiB allocation reported by mallinfo(arena+hblkhd)
           375 MiB available memory on the node where the printing process lives
------------------
     ethr =  1.70E-10,  avg # of iterations =  2.0

     negative rho (up, down):  1.444E-02 0.000E+00

     total cpu time spent up to now is       38.7 secs

     total energy              =    -128.90330149 Ry
     estimated scf accuracy    <       0.00000002 Ry

     iteration # 12     ecut=    50.00 Ry     beta= 0.70
     Davidson diagonalization with overlap

---- Real-time Memory Report at c_bands before calling an iterative solver
           304 MiB given to the printing process from OS
             0 MiB allocation reported by mallinfo(arena+hblkhd)
           375 MiB available memory on the node where the printing process lives
------------------
     ethr =  1.48E-10,  avg # of iterations =  1.9

     negative rho (up, down):  1.444E-02 0.000E+00

     total cpu time spent up to now is       39.7 secs

     total energy              =    -128.90330149 Ry
     estimated scf accuracy    <       0.00000004 Ry

     iteration # 13     ecut=    50.00 Ry     beta= 0.70
     Davidson diagonalization with overlap

---- Real-time Memory Report at c_bands before calling an iterative solver
           304 MiB given to the printing process from OS
             0 MiB allocation reported by mallinfo(arena+hblkhd)
           375 MiB available memory on the node where the printing process lives
------------------
     ethr =  1.48E-10,  avg # of iterations =  1.0

     negative rho (up, down):  1.444E-02 0.000E+00

     total cpu time spent up to now is       40.7 secs

     total energy              =    -128.90330150 Ry
     estimated scf accuracy    <       0.00000003 Ry

     iteration # 14     ecut=    50.00 Ry     beta= 0.70
     Davidson diagonalization with overlap

---- Real-time Memory Report at c_bands before calling an iterative solver
           304 MiB given to the printing process from OS
             0 MiB allocation reported by mallinfo(arena+hblkhd)
           375 MiB available memory on the node where the printing process lives
------------------
     ethr =  1.48E-10,  avg # of iterations =  1.0

     negative rho (up, down):  1.445E-02 0.000E+00

     total cpu time spent up to now is       41.7 secs

     total energy              =    -128.90330150 Ry
     estimated scf accuracy    <       0.00000004 Ry

     iteration # 15     ecut=    50.00 Ry     beta= 0.70
     Davidson diagonalization with overlap

---- Real-time Memory Report at c_bands before calling an iterative solver
           304 MiB given to the printing process from OS
             0 MiB allocation reported by mallinfo(arena+hblkhd)
           375 MiB available memory on the node where the printing process lives
------------------
     ethr =  1.48E-10,  avg # of iterations =  1.0

     negative rho (up, down):  1.445E-02 0.000E+00

     total cpu time spent up to now is       42.7 secs

     total energy              =    -128.90330150 Ry
     estimated scf accuracy    <       0.00000005 Ry

     iteration # 16     ecut=    50.00 Ry     beta= 0.70
     Davidson diagonalization with overlap

---- Real-time Memory Report at c_bands before calling an iterative solver
           304 MiB given to the printing process from OS
             0 MiB allocation reported by mallinfo(arena+hblkhd)
           375 MiB available memory on the node where the printing process lives
------------------
     ethr =  1.48E-10,  avg # of iterations =  1.0

     negative rho (up, down):  1.444E-02 0.000E+00

     total cpu time spent up to now is       43.7 secs

     total energy              =    -128.90330150 Ry
     estimated scf accuracy    <       0.00000005 Ry

     iteration # 17     ecut=    50.00 Ry     beta= 0.70
     Davidson diagonalization with overlap

---- Real-time Memory Report at c_bands before calling an iterative solver
           304 MiB given to the printing process from OS
             0 MiB allocation reported by mallinfo(arena+hblkhd)
           375 MiB available memory on the node where the printing process lives
------------------
     ethr =  1.48E-10,  avg # of iterations =  1.0

     negative rho (up, down):  1.445E-02 0.000E+00

     total cpu time spent up to now is       44.7 secs

     total energy              =    -128.90330151 Ry
     estimated scf accuracy    <       0.00000004 Ry

     iteration # 18     ecut=    50.00 Ry     beta= 0.70
     Davidson diagonalization with overlap

---- Real-time Memory Report at c_bands before calling an iterative solver
           304 MiB given to the printing process from OS
             0 MiB allocation reported by mallinfo(arena+hblkhd)
           375 MiB available memory on the node where the printing process lives
------------------
     ethr =  1.48E-10,  avg # of iterations =  1.0

     negative rho (up, down):  1.444E-02 0.000E+00

     total cpu time spent up to now is       45.6 secs

     total energy              =    -128.90330147 Ry
     estimated scf accuracy    <       0.00000007 Ry

     iteration # 19     ecut=    50.00 Ry     beta= 0.70
     Davidson diagonalization with overlap

---- Real-time Memory Report at c_bands before calling an iterative solver
           304 MiB given to the printing process from OS
             0 MiB allocation reported by mallinfo(arena+hblkhd)
           375 MiB available memory on the node where the printing process lives
------------------
     ethr =  1.48E-10,  avg # of iterations =  2.0

     negative rho (up, down):  1.444E-02 0.000E+00

     total cpu time spent up to now is       46.7 secs

     total energy              =    -128.90330148 Ry
     estimated scf accuracy    <          1.1E-10 Ry

     iteration # 20     ecut=    50.00 Ry     beta= 0.70
     Davidson diagonalization with overlap

---- Real-time Memory Report at c_bands before calling an iterative solver
           304 MiB given to the printing process from OS
             0 MiB allocation reported by mallinfo(arena+hblkhd)
           375 MiB available memory on the node where the printing process lives
------------------
     ethr =  6.83E-13,  avg # of iterations =  3.8

     negative rho (up, down):  1.444E-02 0.000E+00

     total cpu time spent up to now is       47.8 secs

     total energy              =    -128.90330148 Ry
     estimated scf accuracy    <          1.1E-10 Ry

     iteration # 21     ecut=    50.00 Ry     beta= 0.70
     Davidson diagonalization with overlap

---- Real-time Memory Report at c_bands before calling an iterative solver
           304 MiB given to the printing process from OS
             0 MiB allocation reported by mallinfo(arena+hblkhd)
           375 MiB available memory on the node where the printing process lives
------------------
     ethr =  6.83E-13,  avg # of iterations =  2.9

     negative rho (up, down):  1.444E-02 0.000E+00

     total cpu time spent up to now is       48.8 secs

     End of self-consistent calculation

          k = 0.0000 0.0000 0.0000 (  1807 PWs)   bands (ev):

   -47.7594 -19.6748 -19.6748 -19.6748 -11.5731   1.1247   1.1247   1.1247

     occupation numbers 
     1.0000   1.0000   1.0000   1.0000   1.0000   1.0000   1.0000   1.0000

          k =-0.1995 0.1995-0.1995 (  1781 PWs)   bands (ev):

   -47.7591 -19.6857 -19.6755 -19.6755 -11.4564   0.3054   1.0259   1.0259

     occupation numbers 
     1.0000   1.0000   1.0000   1.0000   1.0000   1.0000   1.0000   1.0000

          k =-0.3989 0.3989-0.3989 (  1763 PWs)   bands (ev):

   -47.7586 -19.7033 -19.6768 -19.6768 -11.2572  -0.6987   0.8750   0.8750

     occupation numbers 
     1.0000   1.0000   1.0000   1.0000   1.0000   1.0000   1.0000   1.0000

          k = 0.0000 0.3989 0.0000 (  1764 PWs)   bands (ev):

   -47.7590 -19.6844 -19.6777 -19.6777 -11.4249   0.2987   0.8947   0.8947

     occupation numbers 
     1.0000   1.0000   1.0000   1.0000   1.0000   1.0000   1.0000   1.0000

          k =-0.1995 0.5984-0.1995 (  1765 PWs)   bands (ev):

   -47.7586 -19.6960 -19.6801 -19.6794 -11.2648  -0.3796   0.6164   0.7407

     occupation numbers 
     1.0000   1.0000   1.0000   1.0000   1.0000   1.0000   1.0000   1.0000

          k = 0.5984-0.1995 0.5984 (  1756 PWs)   bands (ev):

   -47.7585 -19.7006 -19.6833 -19.6783 -11.1960  -0.5919   0.3546   0.7677

     occupation numbers 
     1.0000   1.0000   1.0000   1.0000   1.0000   1.0000   1.0000   1.0000

          k = 0.3989 0.0000 0.3989 (  1769 PWs)   bands (ev):

   -47.7588 -19.6936 -19.6812 -19.6759 -11.3184  -0.1954   0.5807   0.9419

     occupation numbers 
     1.0000   1.0000   1.0000   1.0000   1.0000   1.0000   1.0000   1.0000

          k = 0.0000 0.7979 0.0000 (  1756 PWs)   bands (ev):

   -47.7584 -19.6951 -19.6826 -19.6826 -11.2072  -0.4868   0.5644   0.5644

     occupation numbers 
     1.0000   1.0000   1.0000   1.0000   1.0000   1.0000   1.0000   1.0000

          k = 0.7979 0.0000 0.7979 (  1748 PWs)   bands (ev):

   -47.7583 -19.6938 -19.6886 -19.6819 -11.1645  -0.4101   0.1299   0.5796

     occupation numbers 
     1.0000   1.0000   1.0000   1.0000   1.0000   1.0000   1.0000   1.0000

          k = 0.5984-0.1995 0.9974 (  1751 PWs)   bands (ev):

   -47.7584 -19.6945 -19.6869 -19.6821 -11.1769  -0.3371   0.1444   0.5260

     occupation numbers 
     1.0000   1.0000   1.0000   1.0000   1.0000   1.0000   1.0000   1.0000

     highest occupied level (ev):     1.1247

!    total energy              =    -128.90330148 Ry
     estimated scf accuracy    <          8.3E-11 Ry

     The total energy is the sum of the following terms:
     one-electron contribution =     -81.01937801 Ry
     hartree contribution      =      45.21621274 Ry
     xc contribution           =     -23.91071242 Ry
     ewald contribution        =     -69.18942378 Ry

     convergence has been achieved in  21 iterations

     negative rho (up, down):  1.444E-02 0.000E+00

     Forces acting on atoms (cartesian axes, Ry/au):

     atom    1 type  1   force =     0.00000000    0.00000000    0.00000000
     atom    2 type  2   force =     0.00000000    0.00000000   -0.00000000
     The non-local contrib.  to forces
     atom    1 type  1   force =    -0.00000000   -0.00000000   -0.00000000
     atom    2 type  2   force =     0.00000000   -0.00000000   -0.00000000
     The ionic contribution  to forces
     atom    1 type  1   force =     0.00000000   -0.00000000   -0.00000000
     atom    2 type  2   force =     0.00000000   -0.00000000   -0.00000000
     The local contribution  to forces
     atom    1 type  1   force =     0.00000000   -0.00000000   -0.00000000
     atom    2 type  2   force =    -0.00000000    0.00000000    0.00000000
     The core correction contribution to forces
     atom    1 type  1   force =     0.00000000    0.00000000    0.00000000
     atom    2 type  2   force =     0.00000000   -0.00000000   -0.00000000
     The Hubbard contrib.    to forces
     atom    1 type  1   force =     0.00000000    0.00000000    0.00000000
     atom    2 type  2   force =     0.00000000    0.00000000    0.00000000
     The SCF correction term to forces
     atom    1 type  1   force =    -0.00000000   -0.00000000    0.00000000
     atom    2 type  2   force =    -0.00000000   -0.00000000    0.00000000

     Total force =     0.000000     Total SCF correction =     0.000000


     Computing stress (Cartesian axis) and pressure


     negative rho (up, down):  1.444E-02 0.000E+00
          total   stress  (Ry/bohr**3)                   (kbar)     P=       13.12
   0.00008919  -0.00000000   0.00000000           13.12       -0.00        0.00
  -0.00000000   0.00008919  -0.00000000           -0.00       13.12       -0.00
   0.00000000  -0.00000000   0.00008919            0.00       -0.00       13.12

     kinetic stress (kbar)   9360.81      0.00      0.00
                               -0.00   9360.81     -0.00
                                0.00      0.00   9360.81

     local   stress (kbar)  14310.33      0.00      0.00
                                0.00  14310.33     -0.00
                                0.00     -0.00  14310.33

     nonloc. stress (kbar) -16292.29      0.00      0.00
                                0.00 -16292.29     -0.00
                                0.00     -0.00 -16292.29

     hartree stress (kbar)   7448.46     -0.00     -0.00
                               -0.00   7448.46      0.00
                               -0.00      0.00   7448.46

     exc-cor stress (kbar)  -1560.00      0.00     -0.00
                                0.00  -1560.00      0.00
                               -0.00      0.00  -1560.00

     corecor stress (kbar)  -1856.62     -0.00     -0.00
                               -0.00  -1856.62     -0.00
                               -0.00     -0.00  -1856.62

     ewald   stress (kbar) -11397.56      0.00      0.00
                                0.00 -11397.56     -0.00
                                0.00     -0.00 -11397.56

     hubbard stress (kbar)      0.00      0.00      0.00
                                0.00      0.00      0.00
                                0.00      0.00      0.00

     DFT-D   stress (kbar)      0.00      0.00      0.00
                                0.00      0.00      0.00
                                0.00      0.00      0.00

     XDM     stress (kbar)      0.00      0.00      0.00
                                0.00      0.00      0.00
                                0.00      0.00      0.00

     dft-nl  stress (kbar)      0.00      0.00      0.00
                                0.00      0.00      0.00
                                0.00      0.00      0.00

     TS-vdW  stress (kbar)      0.00      0.00      0.00
                                0.00      0.00      0.00
                                0.00      0.00      0.00


                                0.00      0.00      0.00
                                0.00      0.00      0.00


                                0.00      0.00      0.00

     Energy error            =      2.3E-04 Ry
     Gradient error          =      6.6E-32 Ry/Bohr
     Cell gradient error     =      1.3E+01 kbar

     number of scf cycles    =   2
     number of bfgs steps    =   1

     enthalpy           old  =    -128.9030721847 Ry
     enthalpy           new  =    -128.9033014813 Ry

     CASE: enthalpy          _new < enthalpy          _old


     WARNING: bfgs curvature condition failed, Theta= 0.945
     new trust radius        =       0.0100257799 bohr
ibrav =      2
 celldm(1) =     10.62979121
Input lattice vectors:
    -0.50278078    -0.00000000     0.50278078
    -0.00000000     0.50278078     0.50278078
    -0.50278078     0.50278078    -0.00000000
New lattice vectors in INITIAL alat:
    -0.50278078     0.00000000     0.50278078
     0.00000000     0.50278078     0.50278078
    -0.50278078     0.50278078     0.00000000
New lattice vectors in NEW alat (for information only):
    -0.50000000     0.00000000     0.50000000
     0.00000000     0.50000000     0.50000000
    -0.50000000     0.50000000     0.00000000
Discrepancy in bohr =     0.000000    0.000000    0.000000
     new conv_thr            =            1.0E-12 Ry

     new unit-cell volume =    300.27157 a.u.^3 (    44.49566 Ang^3 )
     density =      2.18103 g/cm^3

CELL_PARAMETERS (alat= 10.57100000)
  -0.502780778   0.000000000   0.502780778
   0.000000000   0.502780778   0.502780778
  -0.502780778   0.502780778   0.000000000

ATOMIC_POSITIONS (crystal)
Na           -0.0000000000        0.0000000000        0.0000000000
Cl            0.5000000000        0.5000000000        0.5000000000



     Writing config-only to output data dir ./nacl.save/
     NEW-OLD atomic charge density approx. for the potential

     negative rho (up, down):  1.456E-02 0.000E+00
     extrapolated charge   16.13860, renormalised to   16.00000

     total cpu time spent up to now is       61.6 secs

     Self-consistent Calculation

     iteration #  1     ecut=    50.00 Ry     beta= 0.70
     Davidson diagonalization with overlap

---- Real-time Memory Report at c_bands before calling an iterative solver
           305 MiB given to the printing process from OS
             0 MiB allocation reported by mallinfo(arena+hblkhd)
           368 MiB available memory on the node where the printing process lives
------------------
     ethr =  1.00E-06,  avg # of iterations =  3.0

     negative rho (up, down):  1.430E-02 0.000E+00

     total cpu time spent up to now is       62.7 secs

     total energy              =    -128.89920669 Ry
     estimated scf accuracy    <       0.00238843 Ry

     iteration #  2     ecut=    50.00 Ry     beta= 0.70
     Davidson diagonalization with overlap

---- Real-time Memory Report at c_bands before calling an iterative solver
           305 MiB given to the printing process from OS
             0 MiB allocation reported by mallinfo(arena+hblkhd)
           365 MiB available memory on the node where the printing process lives
------------------
     ethr =  1.49E-05,  avg # of iterations =  3.0

     negative rho (up, down):  1.436E-02 0.000E+00

     total cpu time spent up to now is       64.0 secs

     total energy              =    -128.90362335 Ry
     estimated scf accuracy    <       0.00396688 Ry

     iteration #  3     ecut=    50.00 Ry     beta= 0.70
     Davidson diagonalization with overlap

---- Real-time Memory Report at c_bands before calling an iterative solver
           305 MiB given to the printing process from OS
             0 MiB allocation reported by mallinfo(arena+hblkhd)
           378 MiB available memory on the node where the printing process lives
------------------
     ethr =  1.49E-05,  avg # of iterations =  2.0

     negative rho (up, down):  1.438E-02 0.000E+00

     total cpu time spent up to now is       65.0 secs

     total energy              =    -128.90368413 Ry
     estimated scf accuracy    <       0.00084954 Ry

     iteration #  4     ecut=    50.00 Ry     beta= 0.70
     Davidson diagonalization with overlap

---- Real-time Memory Report at c_bands before calling an iterative solver
           305 MiB given to the printing process from OS
             0 MiB allocation reported by mallinfo(arena+hblkhd)
           377 MiB available memory on the node where the printing process lives
------------------
     ethr =  5.31E-06,  avg # of iterations =  1.0

     negative rho (up, down):  1.441E-02 0.000E+00

     total cpu time spent up to now is       66.0 secs

     total energy              =    -128.90354304 Ry
     estimated scf accuracy    <       0.00044570 Ry

     iteration #  5     ecut=    50.00 Ry     beta= 0.70
     Davidson diagonalization with overlap

---- Real-time Memory Report at c_bands before calling an iterative solver
           305 MiB given to the printing process from OS
             0 MiB allocation reported by mallinfo(arena+hblkhd)
           377 MiB available memory on the node where the printing process lives
------------------
     ethr =  2.79E-06,  avg # of iterations =  1.0

     negative rho (up, down):  1.443E-02 0.000E+00

     total cpu time spent up to now is       67.0 secs

     total energy              =    -128.90349350 Ry
     estimated scf accuracy    <       0.00012790 Ry

     iteration #  6     ecut=    50.00 Ry     beta= 0.70
     Davidson diagonalization with overlap

---- Real-time Memory Report at c_bands before calling an iterative solver
           305 MiB given to the printing process from OS
             0 MiB allocation reported by mallinfo(arena+hblkhd)
           376 MiB available memory on the node where the printing process lives
------------------
     ethr =  7.99E-07,  avg # of iterations =  2.0

     negative rho (up, down):  1.443E-02 0.000E+00

     total cpu time spent up to now is       68.1 secs

     total energy              =    -128.90350875 Ry
     estimated scf accuracy    <       0.00000663 Ry

     iteration #  7     ecut=    50.00 Ry     beta= 0.70
     Davidson diagonalization with overlap

---- Real-time Memory Report at c_bands before calling an iterative solver
           305 MiB given to the printing process from OS
             0 MiB allocation reported by mallinfo(arena+hblkhd)
           376 MiB available memory on the node where the printing process lives
------------------
     ethr =  4.14E-08,  avg # of iterations =  2.8

     negative rho (up, down):  1.444E-02 0.000E+00

     total cpu time spent up to now is       69.3 secs

     total energy              =    -128.90351143 Ry
     estimated scf accuracy    <       0.00000043 Ry

     iteration #  8     ecut=    50.00 Ry     beta= 0.70
     Davidson diagonalization with overlap

---- Real-time Memory Report at c_bands before calling an iterative solver
           305 MiB given to the printing process from OS
             0 MiB allocation reported by mallinfo(arena+hblkhd)
           376 MiB available memory on the node where the printing process lives
------------------
     ethr =  2.70E-09,  avg # of iterations =  2.5

     negative rho (up, down):  1.444E-02 0.000E+00

     total cpu time spent up to now is       70.4 secs

     total energy              =    -128.90351153 Ry
     estimated scf accuracy    <       0.00000071 Ry

     iteration #  9     ecut=    50.00 Ry     beta= 0.70
     Davidson diagonalization with overlap

---- Real-time Memory Report at c_bands before calling an iterative solver
           305 MiB given to the printing process from OS
             0 MiB allocation reported by mallinfo(arena+hblkhd)
           376 MiB available memory on the node where the printing process lives
------------------
     ethr =  2.70E-09,  avg # of iterations =  2.0

     negative rho (up, down):  1.443E-02 0.000E+00

     total cpu time spent up to now is       71.4 secs

     total energy              =    -128.90351129 Ry
     estimated scf accuracy    <       0.00000088 Ry

     iteration # 10     ecut=    50.00 Ry     beta= 0.70
     Davidson diagonalization with overlap

---- Real-time Memory Report at c_bands before calling an iterative solver
           305 MiB given to the printing process from OS
             0 MiB allocation reported by mallinfo(arena+hblkhd)
           375 MiB available memory on the node where the printing process lives
------------------
     ethr =  2.70E-09,  avg # of iterations =  2.0

     negative rho (up, down):  1.443E-02 0.000E+00

     total cpu time spent up to now is       72.4 secs

     total energy              =    -128.90351135 Ry
     estimated scf accuracy    <       0.00000025 Ry

     iteration # 11     ecut=    50.00 Ry     beta= 0.70
     Davidson diagonalization with overlap

---- Real-time Memory Report at c_bands before calling an iterative solver
           305 MiB given to the printing process from OS
             0 MiB allocation reported by mallinfo(arena+hblkhd)
           375 MiB available memory on the node where the printing process lives
------------------
     ethr =  1.57E-09,  avg # of iterations =  1.0

     negative rho (up, down):  1.443E-02 0.000E+00

     total cpu time spent up to now is       73.4 secs

     total energy              =    -128.90351134 Ry
     estimated scf accuracy    <       0.00000029 Ry

     iteration # 12     ecut=    50.00 Ry     beta= 0.70
     Davidson diagonalization with overlap

---- Real-time Memory Report at c_bands before calling an iterative solver
           305 MiB given to the printing process from OS
             0 MiB allocation reported by mallinfo(arena+hblkhd)
           375 MiB available memory on the node where the printing process lives
------------------
     ethr =  1.57E-09,  avg # of iterations =  1.0

     negative rho (up, down):  1.443E-02 0.000E+00

     total cpu time spent up to now is       74.4 secs

     total energy              =    -128.90351127 Ry
     estimated scf accuracy    <       0.00000026 Ry

     iteration # 13     ecut=    50.00 Ry     beta= 0.70
     Davidson diagonalization with overlap

---- Real-time Memory Report at c_bands before calling an iterative solver
           305 MiB given to the printing process from OS
             0 MiB allocation reported by mallinfo(arena+hblkhd)
           375 MiB available memory on the node where the printing process lives
------------------
     ethr =  1.57E-09,  avg # of iterations =  1.0

     negative rho (up, down):  1.443E-02 0.000E+00

     total cpu time spent up to now is       75.4 secs

     total energy              =    -128.90351128 Ry
     estimated scf accuracy    <       0.00000012 Ry

     iteration # 14     ecut=    50.00 Ry     beta= 0.70
     Davidson diagonalization with overlap

---- Real-time Memory Report at c_bands before calling an iterative solver
           305 MiB given to the printing process from OS
             0 MiB allocation reported by mallinfo(arena+hblkhd)
           375 MiB available memory on the node where the printing process lives
------------------
     ethr =  7.65E-10,  avg # of iterations =  1.0

     negative rho (up, down):  1.443E-02 0.000E+00

     total cpu time spent up to now is       76.3 secs

     total energy              =    -128.90351124 Ry
     estimated scf accuracy    <       0.00000012 Ry

     iteration # 15     ecut=    50.00 Ry     beta= 0.70
     Davidson diagonalization with overlap

---- Real-time Memory Report at c_bands before calling an iterative solver
           305 MiB given to the printing process from OS
             0 MiB allocation reported by mallinfo(arena+hblkhd)
           375 MiB available memory on the node where the printing process lives
------------------
     ethr =  7.23E-10,  avg # of iterations =  1.9

     negative rho (up, down):  1.443E-02 0.000E+00

     total cpu time spent up to now is       77.3 secs

     total energy              =    -128.90351125 Ry
     estimated scf accuracy    <       0.00000003 Ry

     iteration # 16     ecut=    50.00 Ry     beta= 0.70
     Davidson diagonalization with overlap

---- Real-time Memory Report at c_bands before calling an iterative solver
           305 MiB given to the printing process from OS
             0 MiB allocation reported by mallinfo(arena+hblkhd)
           375 MiB available memory on the node where the printing process lives
------------------
     ethr =  1.88E-10,  avg # of iterations =  1.0

     negative rho (up, down):  1.443E-02 0.000E+00

     total cpu time spent up to now is       78.3 secs

     total energy              =    -128.90351123 Ry
     estimated scf accuracy    <       0.00000003 Ry

     iteration # 17     ecut=    50.00 Ry     beta= 0.70
     Davidson diagonalization with overlap

---- Real-time Memory Report at c_bands before calling an iterative solver
           305 MiB given to the printing process from OS
             0 MiB allocation reported by mallinfo(arena+hblkhd)
           375 MiB available memory on the node where the printing process lives
------------------
     ethr =  1.88E-10,  avg # of iterations =  2.0

     negative rho (up, down):  1.443E-02 0.000E+00

     total cpu time spent up to now is       79.3 secs

     total energy              =    -128.90351123 Ry
     estimated scf accuracy    <          1.2E-10 Ry

     iteration # 18     ecut=    50.00 Ry     beta= 0.70
     Davidson diagonalization with overlap

---- Real-time Memory Report at c_bands before calling an iterative solver
           305 MiB given to the printing process from OS
             0 MiB allocation reported by mallinfo(arena+hblkhd)
           375 MiB available memory on the node where the printing process lives
------------------
     ethr =  7.74E-13,  avg # of iterations =  5.3

     negative rho (up, down):  1.443E-02 0.000E+00

     total cpu time spent up to now is       80.5 secs

     total energy              =    -128.90351123 Ry
     estimated scf accuracy    <          3.4E-11 Ry

     iteration # 19     ecut=    50.00 Ry     beta= 0.70
     Davidson diagonalization with overlap

---- Real-time Memory Report at c_bands before calling an iterative solver
           305 MiB given to the printing process from OS
             0 MiB allocation reported by mallinfo(arena+hblkhd)
           375 MiB available memory on the node where the printing process lives
------------------
     ethr =  2.14E-13,  avg # of iterations =  2.0

     negative rho (up, down):  1.443E-02 0.000E+00

     total cpu time spent up to now is       81.6 secs

[...]

     Dynamical RAM for                spsi:       0.46 MB

     Dynamical RAM for      wfcinit/wfcrot:       0.51 MB

     Dynamical RAM for           addusdens:     221.61 MB

     Dynamical RAM for          addusforce:     222.21 MB

     Dynamical RAM for         addusstress:     238.20 MB

     Estimated static dynamical RAM per process >      42.42 MB

     Estimated max dynamical RAM per process >     299.58 MB

     Initial potential from superposition of free atoms

     starting charge      15.9937, renormalised to      16.0000

     negative rho (up, down):  1.485E-02 0.000E+00
     Starting wfcs are    9 randomized atomic wfcs

     total cpu time spent up to now is      201.4 secs

     Self-consistent Calculation

     iteration #  1     ecut=    50.00 Ry     beta= 0.70
     Davidson diagonalization with overlap

---- Real-time Memory Report at c_bands before calling an iterative solver
           305 MiB given to the printing process from OS
             0 MiB allocation reported by mallinfo(arena+hblkhd)
           394 MiB available memory on the node where the printing process lives
------------------
     ethr =  1.00E-06,  avg # of iterations =  6.9

     negative rho (up, down):  1.521E-02 0.000E+00

     total cpu time spent up to now is      202.9 secs

     total energy              =    -128.88708063 Ry
     estimated scf accuracy    <       0.05295378 Ry

     iteration #  2     ecut=    50.00 Ry     beta= 0.70
     Davidson diagonalization with overlap

---- Real-time Memory Report at c_bands before calling an iterative solver
           305 MiB given to the printing process from OS
             0 MiB allocation reported by mallinfo(arena+hblkhd)
           362 MiB available memory on the node where the printing process lives
------------------
     ethr =  3.31E-04,  avg # of iterations =  2.0

     negative rho (up, down):  1.466E-02 0.000E+00

     total cpu time spent up to now is      204.0 secs

     total energy              =    -128.90203573 Ry
     estimated scf accuracy    <       0.01079629 Ry

     iteration #  3     ecut=    50.00 Ry     beta= 0.70
     Davidson diagonalization with overlap

---- Real-time Memory Report at c_bands before calling an iterative solver
           305 MiB given to the printing process from OS
             0 MiB allocation reported by mallinfo(arena+hblkhd)
           361 MiB available memory on the node where the printing process lives
------------------
     ethr =  6.75E-05,  avg # of iterations =  2.0

     negative rho (up, down):  1.438E-02 0.000E+00

     total cpu time spent up to now is      205.1 secs

     total energy              =    -128.90393942 Ry
     estimated scf accuracy    <       0.00021852 Ry

     iteration #  4     ecut=    50.00 Ry     beta= 0.70
     Davidson diagonalization with overlap

---- Real-time Memory Report at c_bands before calling an iterative solver
           305 MiB given to the printing process from OS
             0 MiB allocation reported by mallinfo(arena+hblkhd)
           361 MiB available memory on the node where the printing process lives
------------------
     ethr =  1.37E-06,  avg # of iterations =  2.9

     negative rho (up, down):  1.443E-02 0.000E+00

     total cpu time spent up to now is      206.2 secs

     total energy              =    -128.90398535 Ry
     estimated scf accuracy    <       0.00002121 Ry

     iteration #  5     ecut=    50.00 Ry     beta= 0.70
     Davidson diagonalization with overlap

---- Real-time Memory Report at c_bands before calling an iterative solver
           305 MiB given to the printing process from OS
             0 MiB allocation reported by mallinfo(arena+hblkhd)
           360 MiB available memory on the node where the printing process lives
------------------
     ethr =  1.33E-07,  avg # of iterations =  2.0

     negative rho (up, down):  1.447E-02 0.000E+00

     total cpu time spent up to now is      207.4 secs

     total energy              =    -128.90398794 Ry
     estimated scf accuracy    <       0.00000217 Ry

     iteration #  6     ecut=    50.00 Ry     beta= 0.70
     Davidson diagonalization with overlap

---- Real-time Memory Report at c_bands before calling an iterative solver
           305 MiB given to the printing process from OS
             0 MiB allocation reported by mallinfo(arena+hblkhd)
           360 MiB available memory on the node where the printing process lives
------------------
     ethr =  1.35E-08,  avg # of iterations =  3.6

     negative rho (up, down):  1.445E-02 0.000E+00

     total cpu time spent up to now is      208.5 secs

     total energy              =    -128.90398920 Ry
     estimated scf accuracy    <       0.00000151 Ry

     iteration #  7     ecut=    50.00 Ry     beta= 0.70
     Davidson diagonalization with overlap

---- Real-time Memory Report at c_bands before calling an iterative solver
           306 MiB given to the printing process from OS
             0 MiB allocation reported by mallinfo(arena+hblkhd)
           359 MiB available memory on the node where the printing process lives
------------------
     ethr =  9.44E-09,  avg # of iterations =  2.0

     negative rho (up, down):  1.445E-02 0.000E+00

     total cpu time spent up to now is      209.6 secs

     total energy              =    -128.90398943 Ry
     estimated scf accuracy    <       0.00000003 Ry

     iteration #  8     ecut=    50.00 Ry     beta= 0.70
     Davidson diagonalization with overlap

---- Real-time Memory Report at c_bands before calling an iterative solver
           306 MiB given to the printing process from OS
             0 MiB allocation reported by mallinfo(arena+hblkhd)
           359 MiB available memory on the node where the printing process lives
------------------
     ethr =  2.00E-10,  avg # of iterations =  4.5

     negative rho (up, down):  1.445E-02 0.000E+00

     total cpu time spent up to now is      210.8 secs

     total energy              =    -128.90398948 Ry
     estimated scf accuracy    <       0.00000002 Ry

     iteration #  9     ecut=    50.00 Ry     beta= 0.70
     Davidson diagonalization with overlap

---- Real-time Memory Report at c_bands before calling an iterative solver
           307 MiB given to the printing process from OS
             0 MiB allocation reported by mallinfo(arena+hblkhd)
           359 MiB available memory on the node where the printing process lives
------------------
     ethr =  1.44E-10,  avg # of iterations =  2.0

     negative rho (up, down):  1.445E-02 0.000E+00

     total cpu time spent up to now is      211.9 secs

     total energy              =    -128.90398948 Ry
     estimated scf accuracy    <          4.7E-09 Ry

     iteration # 10     ecut=    50.00 Ry     beta= 0.70
     Davidson diagonalization with overlap

---- Real-time Memory Report at c_bands before calling an iterative solver
           307 MiB given to the printing process from OS
             0 MiB allocation reported by mallinfo(arena+hblkhd)
           358 MiB available memory on the node where the printing process lives
------------------
     ethr =  2.96E-11,  avg # of iterations =  2.0

     negative rho (up, down):  1.445E-02 0.000E+00

     total cpu time spent up to now is      213.0 secs

     total energy              =    -128.90398948 Ry
     estimated scf accuracy    <          4.0E-10 Ry

     iteration # 11     ecut=    50.00 Ry     beta= 0.70
     Davidson diagonalization with overlap

---- Real-time Memory Report at c_bands before calling an iterative solver
           307 MiB given to the printing process from OS
             0 MiB allocation reported by mallinfo(arena+hblkhd)
           358 MiB available memory on the node where the printing process lives
------------------
     ethr =  2.51E-12,  avg # of iterations =  3.0

     negative rho (up, down):  1.445E-02 0.000E+00

     total cpu time spent up to now is      214.0 secs

     total energy              =    -128.90398948 Ry
     estimated scf accuracy    <          7.6E-11 Ry

     iteration # 12     ecut=    50.00 Ry     beta= 0.70
     Davidson diagonalization with overlap

---- Real-time Memory Report at c_bands before calling an iterative solver
           307 MiB given to the printing process from OS
             0 MiB allocation reported by mallinfo(arena+hblkhd)
           358 MiB available memory on the node where the printing process lives
------------------
     ethr =  4.75E-13,  avg # of iterations =  2.1

     negative rho (up, down):  1.445E-02 0.000E+00

     total cpu time spent up to now is      215.1 secs

     total energy              =    -128.90398948 Ry
     estimated scf accuracy    <          1.8E-11 Ry

     iteration # 13     ecut=    50.00 Ry     beta= 0.70
     Davidson diagonalization with overlap

---- Real-time Memory Report at c_bands before calling an iterative solver
           307 MiB given to the printing process from OS
             0 MiB allocation reported by mallinfo(arena+hblkhd)
           358 MiB available memory on the node where the printing process lives
------------------
     ethr =  1.13E-13,  avg # of iterations =  3.0

     negative rho (up, down):  1.445E-02 0.000E+00

     total cpu time spent up to now is      216.1 secs

     End of self-consistent calculation

          k = 0.0000 0.0000 0.0000 (  1837 PWs)   bands (ev):

   -48.2166 -20.1300 -20.1300 -20.1300 -11.8271   0.7628   0.7628   0.7628

     occupation numbers 
     1.0000   1.0000   1.0000   1.0000   1.0000   1.0000   1.0000   1.0000

          k =-0.1963 0.1963-0.1963 (  1877 PWs)   bands (ev):

   -48.2163 -20.1387 -20.1306 -20.1306 -11.7260   0.0031   0.6739   0.6739

     occupation numbers 
     1.0000   1.0000   1.0000   1.0000   1.0000   1.0000   1.0000   1.0000

          k =-0.3925 0.3925-0.3925 (  1877 PWs)   bands (ev):

   -48.2160 -20.1525 -20.1317 -20.1317 -11.5543  -0.9271   0.5376   0.5376

     occupation numbers 
     1.0000   1.0000   1.0000   1.0000   1.0000   1.0000   1.0000   1.0000

          k = 0.0000 0.3925 0.0000 (  1868 PWs)   bands (ev):

   -48.2163 -20.1376 -20.1324 -20.1324 -11.6983  -0.0016   0.5515   0.5515

     occupation numbers 
     1.0000   1.0000   1.0000   1.0000   1.0000   1.0000   1.0000   1.0000

          k =-0.1963 0.5888-0.1963 (  1875 PWs)   bands (ev):

   -48.2159 -20.1469 -20.1344 -20.1338 -11.5595  -0.6304   0.2983   0.4108

     occupation numbers 
     1.0000   1.0000   1.0000   1.0000   1.0000   1.0000   1.0000   1.0000

          k = 0.5888-0.1963 0.5888 (  1859 PWs)   bands (ev):

   -48.2158 -20.1505 -20.1369 -20.1329 -11.5004  -0.8256   0.0566   0.4382

     occupation numbers 
     1.0000   1.0000   1.0000   1.0000   1.0000   1.0000   1.0000   1.0000

          k = 0.3925 0.0000 0.3925 (  1873 PWs)   bands (ev):

   -48.2161 -20.1449 -20.1352 -20.1310 -11.6063  -0.4606   0.2642   0.5991

     occupation numbers 
     1.0000   1.0000   1.0000   1.0000   1.0000   1.0000   1.0000   1.0000

          k = 0.0000 0.7850 0.0000 (  1868 PWs)   bands (ev):

   -48.2158 -20.1463 -20.1363 -20.1363 -11.5080  -0.7284   0.2455   0.2455

     occupation numbers 
     1.0000   1.0000   1.0000   1.0000   1.0000   1.0000   1.0000   1.0000

          k = 0.7850 0.0000 0.7850 (  1864 PWs)   bands (ev):

   -48.2157 -20.1454 -20.1411 -20.1358 -11.4713  -0.6555  -0.1543   0.2611

     occupation numbers 
     1.0000   1.0000   1.0000   1.0000   1.0000   1.0000   1.0000   1.0000

          k = 0.5888-0.1963 0.9813 (  1850 PWs)   bands (ev):

   -48.2158 -20.1458 -20.1398 -20.1360 -11.4827  -0.5880  -0.1398   0.2140

     occupation numbers 
     1.0000   1.0000   1.0000   1.0000   1.0000   1.0000   1.0000   1.0000

     highest occupied level (ev):     0.7628

!    total energy              =    -128.90398948 Ry
     estimated scf accuracy    <          1.2E-13 Ry

     The total energy is the sum of the following terms:
     one-electron contribution =     -82.81967460 Ry
     hartree contribution      =      45.88334595 Ry
     xc contribution           =     -23.89262875 Ry
     ewald contribution        =     -68.07503209 Ry

     convergence has been achieved in  13 iterations

     negative rho (up, down):  1.445E-02 0.000E+00

     Forces acting on atoms (cartesian axes, Ry/au):

     atom    1 type  1   force =     0.00000000    0.00000000    0.00000000
     atom    2 type  2   force =    -0.00000000   -0.00000000   -0.00000000
     The non-local contrib.  to forces
     atom    1 type  1   force =    -0.00000000   -0.00000000   -0.00000000
     atom    2 type  2   force =     0.00000000    0.00000000    0.00000000
     The ionic contribution  to forces
     atom    1 type  1   force =     0.00000000   -0.00000000   -0.00000000
     atom    2 type  2   force =     0.00000000   -0.00000000   -0.00000000
     The local contribution  to forces
     atom    1 type  1   force =     0.00000000   -0.00000000   -0.00000000
     atom    2 type  2   force =    -0.00000000    0.00000000    0.00000000
     The core correction contribution to forces
     atom    1 type  1   force =     0.00000000    0.00000000    0.00000000
     atom    2 type  2   force =     0.00000000   -0.00000000   -0.00000000
     The Hubbard contrib.    to forces
     atom    1 type  1   force =     0.00000000    0.00000000    0.00000000
     atom    2 type  2   force =     0.00000000    0.00000000    0.00000000
     The SCF correction term to forces
     atom    1 type  1   force =     0.00000000    0.00000000   -0.00000000
     atom    2 type  2   force =    -0.00000000   -0.00000000    0.00000000

     Total force =     0.000000     Total SCF correction =     0.000000


     Computing stress (Cartesian axis) and pressure


     negative rho (up, down):  1.445E-02 0.000E+00
          total   stress  (Ry/bohr**3)                   (kbar)     P=        0.18
   0.00000119  -0.00000000   0.00000000            0.18       -0.00        0.00
  -0.00000000   0.00000119   0.00000000           -0.00        0.18        0.00
  -0.00000000   0.00000000   0.00000119           -0.00        0.00        0.18

     kinetic stress (kbar)   8902.54      0.00      0.00
                                0.00   8902.54      0.00
                                0.00      0.00   8902.54

     local   stress (kbar)  13345.45      0.00     -0.00
                                0.00  13345.45      0.00
                               -0.00      0.00  13345.45

     nonloc. stress (kbar) -15514.36     -0.00     -0.00
                               -0.00 -15514.36      0.00
                               -0.00      0.00 -15514.36

     hartree stress (kbar)   7198.99     -0.00      0.00
                               -0.00   7198.99     -0.00
                                0.00     -0.00   7198.99

     exc-cor stress (kbar)  -1483.50      0.00      0.00
                                0.00  -1483.50      0.00
                                0.00      0.00  -1483.50

     corecor stress (kbar)  -1768.12     -0.00      0.00
                               -0.00  -1768.12      0.00
                                0.00      0.00  -1768.12

     ewald   stress (kbar) -10680.82      0.00      0.00
                                0.00 -10680.82     -0.00
                                0.00     -0.00 -10680.82

     hubbard stress (kbar)      0.00      0.00      0.00
                                0.00      0.00      0.00
                                0.00      0.00      0.00

     DFT-D   stress (kbar)      0.00      0.00      0.00
                                0.00      0.00      0.00
                                0.00      0.00      0.00

     XDM     stress (kbar)      0.00      0.00      0.00
                                0.00      0.00      0.00
                                0.00      0.00      0.00

     dft-nl  stress (kbar)      0.00      0.00      0.00
                                0.00      0.00      0.00
                                0.00      0.00      0.00

     TS-vdW  stress (kbar)      0.00      0.00      0.00
                                0.00      0.00      0.00
                                0.00      0.00      0.00


                                0.00      0.00      0.00
                                0.00      0.00      0.00


                                0.00      0.00      0.00


     Writing all to output data dir ./nacl.save/

     init_run     :      8.15s CPU      8.72s WALL (       2 calls)
     electrons    :    114.07s CPU    135.46s WALL (       7 calls)
     update_pot   :     20.46s CPU     20.84s WALL (       5 calls)
     forces       :     15.90s CPU     16.80s WALL (       7 calls)
     stress       :     39.39s CPU     41.54s WALL (       7 calls)

     Called by init_run:
     wfcinit      :      0.25s CPU      0.25s WALL (       2 calls)
     wfcinit:atom :      0.01s CPU      0.01s WALL (      20 calls)
     wfcinit:wfcr :      0.21s CPU      0.22s WALL (      20 calls)
     potinit      :      3.04s CPU      3.18s WALL (       2 calls)
     hinit0       :      4.38s CPU      4.62s WALL (       2 calls)

     Called by electrons:
     c_bands      :     36.68s CPU     37.42s WALL (     128 calls)
     sum_band     :     37.64s CPU     46.95s WALL (     128 calls)
     v_of_rho     :     14.81s CPU     15.87s WALL (     134 calls)
     v_h          :      0.72s CPU      0.82s WALL (     134 calls)
     v_xc         :     15.56s CPU     16.57s WALL (     148 calls)
     newd         :     24.49s CPU     35.33s WALL (     134 calls)
     mix_rho      :      1.48s CPU      1.53s WALL (     128 calls)

     Called by c_bands:
     init_us_2    :      1.51s CPU      1.55s WALL (    2720 calls)
     init_us_2:cp :      1.50s CPU      1.54s WALL (    2720 calls)
     cegterg      :     34.24s CPU     34.87s WALL (    1280 calls)

     Called by sum_band:
     sum_band:wei :      0.00s CPU      0.00s WALL (     128 calls)
     sum_band:loo :      6.85s CPU      6.93s WALL (     128 calls)
     sum_band:buf :      0.05s CPU      0.05s WALL (    1280 calls)
     sum_band:ini :      0.73s CPU      0.74s WALL (    1280 calls)
     sum_band:cal :      0.86s CPU      0.87s WALL (    1280 calls)
     sum_band:bec :      0.02s CPU      0.02s WALL (    1280 calls)
     addusdens    :     29.31s CPU     38.33s WALL (     128 calls)
     addusd:skk   :      0.09s CPU      0.10s WALL (     256 calls)
     addusd:dgemm :      8.66s CPU     16.62s WALL (     256 calls)
     addusd:qvan2 :     16.57s CPU     16.98s WALL (     256 calls)

     Called by *egterg:
     cdiaghg      :      0.27s CPU      0.28s WALL (    3962 calls)
     cegterg:over :      1.19s CPU      1.21s WALL (    2742 calls)
     cegterg:upda :      0.61s CPU      0.63s WALL (    2742 calls)
     cegterg:last :      1.27s CPU      1.29s WALL (    2515 calls)
     h_psi        :     28.72s CPU     29.25s WALL (    4042 calls)
     s_psi        :      1.57s CPU      1.60s WALL (    4042 calls)
     g_psi        :      0.11s CPU      0.11s WALL (    2742 calls)

     Called by h_psi:
     h_psi:calbec :      2.10s CPU      2.13s WALL (    4042 calls)
     vloc_psi     :     24.94s CPU     25.41s WALL (    4042 calls)
     add_vuspsi   :      1.57s CPU      1.60s WALL (    4042 calls)

     General routines
     calbec       :      3.14s CPU      3.20s WALL (    5672 calls)
     fft          :      7.72s CPU      8.04s WALL (    1909 calls)
     ffts         :      0.19s CPU      0.19s WALL (     262 calls)
     fftw         :     26.81s CPU     27.32s WALL (   64328 calls)
     interpolate  :      0.76s CPU      0.78s WALL (     134 calls)

     Parallel routines

     PWSCF        :   3m19.15s CPU   3m45.02s WALL


   This run was terminated on:   4:10:36   2Feb2022            

=------------------------------------------------------------------------------=
   JOB DONE.
=------------------------------------------------------------------------------=
