
     Program PWSCF v.7.0 starts on  1Feb2022 at 17:33: 2 

     This program is part of the open-source Quantum ESPRESSO suite
     for quantum simulation of materials; please cite
         "P. Giannozzi et al., J. Phys.:Condens. Matter 21 395502 (2009);
         "P. Giannozzi et al., J. Phys.:Condens. Matter 29 465901 (2017);
         "P. Giannozzi et al., J. Chem. Phys. 152 154105 (2020);
          URL http://www.quantum-espresso.org", 
     in publications or presentations arising from this work. More details at
     http://www.quantum-espresso.org/quote

     Parallel version (MPI), running on     1 processors

     MPI processes distributed on     1 nodes
     634 MiB available memory on the printing compute node when the environment starts

     Reading input from 01-nio-scf.in
     Message from routine read_cards :
     DEPRECATED: no units specified in CELL_PARAMETERS card

     Current dimensions of program PWSCF are:
     Max number of different atomic species (ntypx) = 10
     Max number of k-points (npk) =  40000
     Max angular momentum in pseudopotentials (lmaxx) =  4
     Message from routine volume:
     axis vectors are left-handed
     Message from routine setup:
     using ibrav=0 with symmetry is DISCOURAGED, use correct ibrav instead

     Subspace diagonalization in iterative solution of the eigenvalue problem:
     a serial algorithm will be used


     G-vector sticks info
     --------------------
     sticks:   dense  smooth     PW     G-vecs:    dense   smooth      PW
     Sum        2457     813    279                60755    11627    2297

     Using Slab Decomposition



     bravais-lattice index     =            0
     lattice parameter (alat)  =       7.8802  a.u.
     unit-cell volume          =     244.6666 (a.u.)^3
     number of atoms/cell      =            4
     number of atomic types    =            3
     number of electrons       =        48.00
     number of Kohn-Sham states=           30
     kinetic-energy cutoff     =      50.0000  Ry
     charge density cutoff     =     600.0000  Ry
     scf convergence threshold =      1.0E-10
     mixing beta               =       0.7000
     number of iterations used =            8  plain     mixing
     Exchange-correlation=  SLA  PW   PBX  PBC
                           (   1   4   3   4   0   0   0)

     celldm(1)=   7.880158  celldm(2)=   0.000000  celldm(3)=   0.000000
     celldm(4)=   0.000000  celldm(5)=   0.000000  celldm(6)=   0.000000

     crystal axes: (cart. coord. in units of alat)
               a(1) = (   0.500000   0.500000   1.000000 )  
               a(2) = (   0.500000   1.000000   0.500000 )  
               a(3) = (   1.000000   0.500000   0.500000 )  

     reciprocal axes: (cart. coord. in units 2 pi/alat)
               b(1) = ( -0.500000 -0.500000  1.500000 )  
               b(2) = ( -0.500000  1.500000 -0.500000 )  
               b(3) = (  1.500000 -0.500000 -0.500000 )  


     PseudoPot. # 1 for O  read from file:
     /home/user/pseudo_dir/o_pbe_v1.2.uspp.F.UPF
     MD5 check sum: 734c27235a0248c51dbae37a1fbe46ec
     Pseudo is Ultrasoft + core correction, Zval =  6.0
     Generated by new atomic code, or converted to UPF format
     Using radial grid of  737 points,  5 beta functions with: 
                l(1) =   0
                l(2) =   0
                l(3) =   1
                l(4) =   1
                l(5) =   2
     Q(r) pseudized with  8 coefficients,  rinner =    0.900   0.900   0.900
                                                       0.900   0.900

     PseudoPot. # 2 for Ni read from file:
     /home/user/pseudo_dir/ni_pbe_v1.4.uspp.F.UPF
     MD5 check sum: 1ee80287db30b12d2bc1f57a5b5d6409
     Pseudo is Ultrasoft + core correction, Zval = 18.0
     Generated by new atomic code, or converted to UPF format
     Using radial grid of  865 points,  6 beta functions with: 
                l(1) =   0
                l(2) =   0
                l(3) =   1
                l(4) =   1
                l(5) =   2
                l(6) =   2
     Q(r) pseudized with 10 coefficients,  rinner =    0.980   0.980   0.980
                                                       0.980   0.980

     PseudoPot. # 3 for Ni read from file:
     /home/user/pseudo_dir/ni_pbe_v1.4.uspp.F.UPF
     MD5 check sum: 1ee80287db30b12d2bc1f57a5b5d6409
     Pseudo is Ultrasoft + core correction, Zval = 18.0
     Generated by new atomic code, or converted to UPF format
     Using radial grid of  865 points,  6 beta functions with: 
                l(1) =   0
                l(2) =   0
                l(3) =   1
                l(4) =   1
                l(5) =   2
                l(6) =   2
     Q(r) pseudized with 10 coefficients,  rinner =    0.980   0.980   0.980
                                                       0.980   0.980

     atomic species   valence    mass     pseudopotential
        O              6.00    15.99940     O ( 1.00)
        Ni1           18.00    58.59340     Ni( 1.00)
        Ni2           18.00    58.59340     Ni( 1.00)

     Starting magnetic structure 
     atomic species   magnetization
        O            0.000
        Ni1          0.500
        Ni2         -0.500

     12 Sym. Ops., with inversion, found


                                    s                        frac. trans.

      isym =  1     identity                                     

 cryst.   s( 1) = (     1          0          0      )
                  (     0          1          0      )
                  (     0          0          1      )

 cart.    s( 1) = (  1.0000000  0.0000000  0.0000000 )
                  (  0.0000000  1.0000000  0.0000000 )
                  (  0.0000000  0.0000000  1.0000000 )


      isym =  2     180 deg rotation - cart. axis [1,-1,0]       

 cryst.   s( 2) = (    -1          0          0      )
                  (     0          0         -1      )
                  (     0         -1          0      )

 cart.    s( 2) = (  0.0000000 -1.0000000  0.0000000 )
                  ( -1.0000000  0.0000000  0.0000000 )
                  (  0.0000000  0.0000000 -1.0000000 )


      isym =  3     180 deg rotation - cart. axis [-1,0,1]       

 cryst.   s( 3) = (     0          0         -1      )
                  (     0         -1          0      )
                  (    -1          0          0      )

 cart.    s( 3) = (  0.0000000  0.0000000 -1.0000000 )
                  (  0.0000000 -1.0000000  0.0000000 )
                  ( -1.0000000  0.0000000  0.0000000 )


      isym =  4     180 deg rotation - cart. axis [0,1,-1]       

 cryst.   s( 4) = (     0         -1          0      )
                  (    -1          0          0      )
                  (     0          0         -1      )

 cart.    s( 4) = ( -1.0000000  0.0000000  0.0000000 )
                  (  0.0000000  0.0000000 -1.0000000 )
                  (  0.0000000 -1.0000000  0.0000000 )


      isym =  5     120 deg rotation - cart. axis [-1,-1,-1]     

 cryst.   s( 5) = (     0          1          0      )
                  (     0          0          1      )
                  (     1          0          0      )

 cart.    s( 5) = (  0.0000000  1.0000000  0.0000000 )
                  (  0.0000000  0.0000000  1.0000000 )
                  (  1.0000000  0.0000000  0.0000000 )


      isym =  6     120 deg rotation - cart. axis [1,1,1]        

 cryst.   s( 6) = (     0          0          1      )
                  (     1          0          0      )
                  (     0          1          0      )

 cart.    s( 6) = (  0.0000000  0.0000000  1.0000000 )
                  (  1.0000000  0.0000000  0.0000000 )
                  (  0.0000000  1.0000000  0.0000000 )


      isym =  7     inversion                                    

 cryst.   s( 7) = (    -1          0          0      )
                  (     0         -1          0      )
                  (     0          0         -1      )

 cart.    s( 7) = ( -1.0000000  0.0000000  0.0000000 )
                  (  0.0000000 -1.0000000  0.0000000 )
                  (  0.0000000  0.0000000 -1.0000000 )


      isym =  8     inv. 180 deg rotation - cart. axis [1,-1,0]  

 cryst.   s( 8) = (     1          0          0      )
                  (     0          0          1      )
                  (     0          1          0      )

 cart.    s( 8) = (  0.0000000  1.0000000  0.0000000 )
                  (  1.0000000  0.0000000  0.0000000 )
                  (  0.0000000  0.0000000  1.0000000 )


      isym =  9     inv. 180 deg rotation - cart. axis [-1,0,1]  

 cryst.   s( 9) = (     0          0          1      )
                  (     0          1          0      )
                  (     1          0          0      )

 cart.    s( 9) = (  0.0000000  0.0000000  1.0000000 )
                  (  0.0000000  1.0000000  0.0000000 )
                  (  1.0000000  0.0000000  0.0000000 )


      isym = 10     inv. 180 deg rotation - cart. axis [0,1,-1]  

 cryst.   s(10) = (     0          1          0      )
                  (     1          0          0      )
                  (     0          0          1      )

 cart.    s(10) = (  1.0000000  0.0000000  0.0000000 )
                  (  0.0000000  0.0000000  1.0000000 )
                  (  0.0000000  1.0000000  0.0000000 )


      isym = 11     inv. 120 deg rotation - cart. axis [-1,-1,-1]

 cryst.   s(11) = (     0         -1          0      )
                  (     0          0         -1      )
                  (    -1          0          0      )

 cart.    s(11) = (  0.0000000 -1.0000000  0.0000000 )
                  (  0.0000000  0.0000000 -1.0000000 )
                  ( -1.0000000  0.0000000  0.0000000 )


      isym = 12     inv. 120 deg rotation - cart. axis [1,1,1]   

 cryst.   s(12) = (     0          0         -1      )
                  (    -1          0          0      )
                  (     0         -1          0      )

 cart.    s(12) = (  0.0000000  0.0000000 -1.0000000 )
                  ( -1.0000000  0.0000000  0.0000000 )
                  (  0.0000000 -1.0000000  0.0000000 )


   Cartesian axes

     site n.     atom                  positions (alat units)
         1           O   tau(   1) = (   0.5000000   0.5000000   0.5000000  )
         2           O   tau(   2) = (   1.5000000   1.5000000   1.5000000  )
         3           Ni1 tau(   3) = (   0.0000000   0.0000000   0.0000000  )
         4           Ni2 tau(   4) = (   1.0000000   1.0000000   1.0000000  )

   Crystallographic axes

     site n.     atom                  positions (cryst. coord.)
         1           O   tau(   1) = (  0.2500000  0.2500000  0.2500000  )
         2           O   tau(   2) = (  0.7500000  0.7500000  0.7500000  )
         3           Ni1 tau(   3) = (  0.0000000  0.0000000  0.0000000  )
         4           Ni2 tau(   4) = (  0.5000000  0.5000000  0.5000000  )

     number of k points=    65  Methfessel-Paxton smearing, width (Ry)=  0.0010
                       cart. coord. in units 2pi/alat
        k(    1) = (   0.0000000   0.0000000   0.0000000), wk =   0.0019531
        k(    2) = (   0.1875000  -0.0625000  -0.0625000), wk =   0.0117188
        k(    3) = (   0.3750000  -0.1250000  -0.1250000), wk =   0.0117188
        k(    4) = (   0.5625000  -0.1875000  -0.1875000), wk =   0.0117188
        k(    5) = (  -0.7500000   0.2500000   0.2500000), wk =   0.0058594
        k(    6) = (   0.1250000   0.1250000  -0.1250000), wk =   0.0117188
        k(    7) = (   0.3125000   0.0625000  -0.1875000), wk =   0.0234375
        k(    8) = (   0.5000000   0.0000000  -0.2500000), wk =   0.0234375
        k(    9) = (  -0.8125000   0.4375000   0.1875000), wk =   0.0234375
        k(   10) = (  -0.6250000   0.3750000   0.1250000), wk =   0.0234375
        k(   11) = (  -0.4375000   0.3125000   0.0625000), wk =   0.0234375
        k(   12) = (  -0.2500000   0.2500000   0.0000000), wk =   0.0117188
        k(   13) = (   0.2500000   0.2500000  -0.2500000), wk =   0.0117188
        k(   14) = (   0.4375000   0.1875000  -0.3125000), wk =   0.0234375
        k(   15) = (  -0.8750000   0.6250000   0.1250000), wk =   0.0234375
        k(   16) = (  -0.6875000   0.5625000   0.0625000), wk =   0.0234375
        k(   17) = (  -0.5000000   0.5000000   0.0000000), wk =   0.0117188
        k(   18) = (   0.3750000   0.3750000  -0.3750000), wk =   0.0117188
        k(   19) = (  -0.9375000   0.8125000   0.0625000), wk =   0.0234375
        k(   20) = (  -0.7500000   0.7500000   0.0000000), wk =   0.0117188
        k(   21) = (  -0.5000000  -0.5000000   0.5000000), wk =   0.0058594
        k(   22) = (   0.0625000   0.0625000   0.0625000), wk =   0.0039062
        k(   23) = (   0.2500000   0.0000000   0.0000000), wk =   0.0117188
        k(   24) = (   0.4375000  -0.0625000  -0.0625000), wk =   0.0117188
        k(   25) = (  -0.8750000   0.3750000   0.3750000), wk =   0.0117188
        k(   26) = (  -0.6875000   0.3125000   0.3125000), wk =   0.0117188
        k(   27) = (  -0.5000000   0.2500000   0.2500000), wk =   0.0117188
        k(   28) = (  -0.3125000   0.1875000   0.1875000), wk =   0.0117188
        k(   29) = (   0.1875000   0.1875000  -0.0625000), wk =   0.0117188
        k(   30) = (   0.3750000   0.1250000  -0.1250000), wk =   0.0234375
        k(   31) = (  -0.9375000   0.5625000   0.3125000), wk =   0.0234375
        k(   32) = (  -0.7500000   0.5000000   0.2500000), wk =   0.0234375
        k(   33) = (  -0.5625000   0.4375000   0.1875000), wk =   0.0234375
        k(   34) = (  -0.3750000   0.3750000   0.1250000), wk =   0.0234375
        k(   35) = (   0.3125000   0.3125000  -0.1875000), wk =   0.0117188
        k(   36) = (  -1.0000000   0.7500000   0.2500000), wk =   0.0234375
        k(   37) = (  -0.8125000   0.6875000   0.1875000), wk =   0.0234375
        k(   38) = (  -0.6250000   0.6250000   0.1250000), wk =   0.0234375
        k(   39) = (  -0.4375000   0.5625000   0.0625000), wk =   0.0234375
        k(   40) = (  -0.5625000  -0.5625000   0.6875000), wk =   0.0117188
        k(   41) = (  -0.3750000  -0.6250000   0.6250000), wk =   0.0234375
        k(   42) = (  -0.1875000  -0.6875000   0.5625000), wk =   0.0234375
        k(   43) = (   0.0000000  -0.7500000   0.5000000), wk =   0.0117188
        k(   44) = (  -0.4375000  -0.4375000   0.5625000), wk =   0.0117188
        k(   45) = (  -0.2500000  -0.5000000   0.5000000), wk =   0.0234375
        k(   46) = (  -0.3125000  -0.3125000   0.4375000), wk =   0.0117188
        k(   47) = (   0.1250000   0.1250000   0.1250000), wk =   0.0039062
        k(   48) = (   0.3125000   0.0625000   0.0625000), wk =   0.0117188
        k(   49) = (  -1.0000000   0.5000000   0.5000000), wk =   0.0117188
        k(   50) = (  -0.8125000   0.4375000   0.4375000), wk =   0.0117188
        k(   51) = (  -0.6250000   0.3750000   0.3750000), wk =   0.0117188
        k(   52) = (   0.2500000   0.2500000   0.0000000), wk =   0.0117188
        k(   53) = (  -1.0625000   0.6875000   0.4375000), wk =   0.0234375
        k(   54) = (  -0.8750000   0.6250000   0.3750000), wk =   0.0234375
        k(   55) = (  -0.6875000   0.5625000   0.3125000), wk =   0.0234375
        k(   56) = (  -0.6250000  -0.6250000   0.8750000), wk =   0.0117188
        k(   57) = (  -0.4375000  -0.6875000   0.8125000), wk =   0.0234375
        k(   58) = (  -0.2500000  -0.7500000   0.7500000), wk =   0.0117188
        k(   59) = (  -0.5000000  -0.5000000   0.7500000), wk =   0.0117188
        k(   60) = (   0.1875000   0.1875000   0.1875000), wk =   0.0039062
        k(   61) = (  -1.1250000   0.6250000   0.6250000), wk =   0.0117188
        k(   62) = (  -0.9375000   0.5625000   0.5625000), wk =   0.0117188
        k(   63) = (  -0.6875000  -0.6875000   1.0625000), wk =   0.0117188
        k(   64) = (  -0.5000000  -0.7500000   1.0000000), wk =   0.0117188
        k(   65) = (  -0.2500000  -0.2500000  -0.2500000), wk =   0.0019531

                       cryst. coord.
        k(    1) = (   0.0000000   0.0000000   0.0000000), wk =   0.0019531
        k(    2) = (   0.0000000   0.0000000   0.1250000), wk =   0.0117188
        k(    3) = (   0.0000000   0.0000000   0.2500000), wk =   0.0117188
        k(    4) = (   0.0000000   0.0000000   0.3750000), wk =   0.0117188
        k(    5) = (   0.0000000   0.0000000  -0.5000000), wk =   0.0058594
        k(    6) = (   0.0000000   0.1250000   0.1250000), wk =   0.0117188
        k(    7) = (   0.0000000   0.1250000   0.2500000), wk =   0.0234375
        k(    8) = (   0.0000000   0.1250000   0.3750000), wk =   0.0234375
        k(    9) = (   0.0000000   0.1250000  -0.5000000), wk =   0.0234375
        k(   10) = (   0.0000000   0.1250000  -0.3750000), wk =   0.0234375
        k(   11) = (   0.0000000   0.1250000  -0.2500000), wk =   0.0234375
        k(   12) = (   0.0000000   0.1250000  -0.1250000), wk =   0.0117188
        k(   13) = (   0.0000000   0.2500000   0.2500000), wk =   0.0117188
        k(   14) = (   0.0000000   0.2500000   0.3750000), wk =   0.0234375
        k(   15) = (   0.0000000   0.2500000  -0.5000000), wk =   0.0234375
        k(   16) = (   0.0000000   0.2500000  -0.3750000), wk =   0.0234375
        k(   17) = (   0.0000000   0.2500000  -0.2500000), wk =   0.0117188
        k(   18) = (   0.0000000   0.3750000   0.3750000), wk =   0.0117188
        k(   19) = (   0.0000000   0.3750000  -0.5000000), wk =   0.0234375
        k(   20) = (   0.0000000   0.3750000  -0.3750000), wk =   0.0117188
        k(   21) = (   0.0000000  -0.5000000  -0.5000000), wk =   0.0058594
        k(   22) = (   0.1250000   0.1250000   0.1250000), wk =   0.0039062
        k(   23) = (   0.1250000   0.1250000   0.2500000), wk =   0.0117188
        k(   24) = (   0.1250000   0.1250000   0.3750000), wk =   0.0117188
        k(   25) = (   0.1250000   0.1250000  -0.5000000), wk =   0.0117188
        k(   26) = (   0.1250000   0.1250000  -0.3750000), wk =   0.0117188
        k(   27) = (   0.1250000   0.1250000  -0.2500000), wk =   0.0117188
        k(   28) = (   0.1250000   0.1250000  -0.1250000), wk =   0.0117188
        k(   29) = (   0.1250000   0.2500000   0.2500000), wk =   0.0117188
        k(   30) = (   0.1250000   0.2500000   0.3750000), wk =   0.0234375
        k(   31) = (   0.1250000   0.2500000  -0.5000000), wk =   0.0234375
        k(   32) = (   0.1250000   0.2500000  -0.3750000), wk =   0.0234375
        k(   33) = (   0.1250000   0.2500000  -0.2500000), wk =   0.0234375
        k(   34) = (   0.1250000   0.2500000  -0.1250000), wk =   0.0234375
        k(   35) = (   0.1250000   0.3750000   0.3750000), wk =   0.0117188
        k(   36) = (   0.1250000   0.3750000  -0.5000000), wk =   0.0234375
        k(   37) = (   0.1250000   0.3750000  -0.3750000), wk =   0.0234375
        k(   38) = (   0.1250000   0.3750000  -0.2500000), wk =   0.0234375
        k(   39) = (   0.1250000   0.3750000  -0.1250000), wk =   0.0234375
        k(   40) = (   0.1250000  -0.5000000  -0.5000000), wk =   0.0117188
        k(   41) = (   0.1250000  -0.5000000  -0.3750000), wk =   0.0234375
        k(   42) = (   0.1250000  -0.5000000  -0.2500000), wk =   0.0234375
        k(   43) = (   0.1250000  -0.5000000  -0.1250000), wk =   0.0117188
        k(   44) = (   0.1250000  -0.3750000  -0.3750000), wk =   0.0117188
        k(   45) = (   0.1250000  -0.3750000  -0.2500000), wk =   0.0234375
        k(   46) = (   0.1250000  -0.2500000  -0.2500000), wk =   0.0117188
        k(   47) = (   0.2500000   0.2500000   0.2500000), wk =   0.0039062
        k(   48) = (   0.2500000   0.2500000   0.3750000), wk =   0.0117188
        k(   49) = (   0.2500000   0.2500000  -0.5000000), wk =   0.0117188
        k(   50) = (   0.2500000   0.2500000  -0.3750000), wk =   0.0117188
        k(   51) = (   0.2500000   0.2500000  -0.2500000), wk =   0.0117188
        k(   52) = (   0.2500000   0.3750000   0.3750000), wk =   0.0117188
        k(   53) = (   0.2500000   0.3750000  -0.5000000), wk =   0.0234375
        k(   54) = (   0.2500000   0.3750000  -0.3750000), wk =   0.0234375
        k(   55) = (   0.2500000   0.3750000  -0.2500000), wk =   0.0234375
        k(   56) = (   0.2500000  -0.5000000  -0.5000000), wk =   0.0117188
        k(   57) = (   0.2500000  -0.5000000  -0.3750000), wk =   0.0234375
        k(   58) = (   0.2500000  -0.5000000  -0.2500000), wk =   0.0117188
        k(   59) = (   0.2500000  -0.3750000  -0.3750000), wk =   0.0117188
        k(   60) = (   0.3750000   0.3750000   0.3750000), wk =   0.0039062
        k(   61) = (   0.3750000   0.3750000  -0.5000000), wk =   0.0117188
        k(   62) = (   0.3750000   0.3750000  -0.3750000), wk =   0.0117188
        k(   63) = (   0.3750000  -0.5000000  -0.5000000), wk =   0.0117188
        k(   64) = (   0.3750000  -0.5000000  -0.3750000), wk =   0.0117188
        k(   65) = (  -0.5000000  -0.5000000  -0.5000000), wk =   0.0019531

     Dense  grid:    60755 G-vectors     FFT dimensions: (  75,  75,  75)

     Smooth grid:    11627 G-vectors     FFT dimensions: (  45,  45,  45)

     Dynamical RAM for                 wfc:       0.67 MB

     Dynamical RAM for     wfc (w. buffer):      87.61 MB

     Dynamical RAM for           str. fact:       2.78 MB

     Dynamical RAM for           local pot:       0.00 MB

     Dynamical RAM for          nlocal pot:       1.38 MB

     Dynamical RAM for                qrad:       5.90 MB

     Dynamical RAM for          rho,v,vnew:      24.87 MB

     Dynamical RAM for               rhoin:       8.29 MB

     Dynamical RAM for            rho*nmix:      29.67 MB

     Dynamical RAM for           G-vectors:       3.57 MB

     Dynamical RAM for          h,s,v(r/c):       0.16 MB

     Dynamical RAM for          <psi|beta>:       0.03 MB

     Dynamical RAM for                 psi:       1.34 MB

     Dynamical RAM for                hpsi:       1.34 MB

     Dynamical RAM for                spsi:       1.34 MB

     Dynamical RAM for      wfcinit/wfcrot:       1.54 MB

     Dynamical RAM for           addusdens:     175.21 MB

     Dynamical RAM for          addusforce:     177.08 MB

     Dynamical RAM for         addusstress:     187.73 MB

     Estimated static dynamical RAM per process >     157.42 MB

     Estimated max dynamical RAM per process >     374.81 MB

     Check: negative core charge=   -0.000010
     Generating pointlists ...
     new r_m :   0.2063 (alat units)  1.6253 (a.u.) for type    1
     new r_m :   0.2063 (alat units)  1.6253 (a.u.) for type    2
     new r_m :   0.2063 (alat units)  1.6253 (a.u.) for type    3

     Initial potential from superposition of free atoms

     starting charge      44.0000, renormalised to      48.0000
     Starting wfcs are   34 randomized atomic wfcs

     total cpu time spent up to now is       13.9 secs

     Self-consistent Calculation

     iteration #  1     ecut=    50.00 Ry     beta= 0.70
     Davidson diagonalization with overlap

---- Real-time Memory Report at c_bands before calling an iterative solver
           254 MiB given to the printing process from OS
             0 MiB allocation reported by mallinfo(arena+hblkhd)
           470 MiB available memory on the node where the printing process lives
------------------
     ethr =  1.00E-02,  avg # of iterations =  4.0

     total cpu time spent up to now is       61.9 secs

     total energy              =    -715.42225103 Ry
     estimated scf accuracy    <      59.05794099 Ry

     total magnetization       =     0.00 Bohr mag/cell
     absolute magnetization    =     7.28 Bohr mag/cell

     iteration #  2     ecut=    50.00 Ry     beta= 0.70
     Davidson diagonalization with overlap

---- Real-time Memory Report at c_bands before calling an iterative solver
           368 MiB given to the printing process from OS
             0 MiB allocation reported by mallinfo(arena+hblkhd)
           439 MiB available memory on the node where the printing process lives
------------------
     ethr =  1.00E-02,  avg # of iterations =  3.8

     total cpu time spent up to now is      113.5 secs

     total energy              =    -742.30522283 Ry
     estimated scf accuracy    <     119.56302395 Ry

     total magnetization       =    -0.00 Bohr mag/cell
     absolute magnetization    =     1.05 Bohr mag/cell

     iteration #  3     ecut=    50.00 Ry     beta= 0.70
     Davidson diagonalization with overlap

---- Real-time Memory Report at c_bands before calling an iterative solver
           369 MiB given to the printing process from OS
             0 MiB allocation reported by mallinfo(arena+hblkhd)
           438 MiB available memory on the node where the printing process lives
------------------
     ethr =  1.00E-02,  avg # of iterations =  4.3

     total cpu time spent up to now is      161.9 secs

     total energy              =    -747.94468789 Ry
     estimated scf accuracy    <      13.76427645 Ry

     total magnetization       =    -0.00 Bohr mag/cell
     absolute magnetization    =     0.41 Bohr mag/cell

     iteration #  4     ecut=    50.00 Ry     beta= 0.70
     Davidson diagonalization with overlap

---- Real-time Memory Report at c_bands before calling an iterative solver
           369 MiB given to the printing process from OS
             0 MiB allocation reported by mallinfo(arena+hblkhd)
           437 MiB available memory on the node where the printing process lives
------------------
     ethr =  1.00E-02,  avg # of iterations =  2.1

     total cpu time spent up to now is      199.4 secs

     total energy              =    -750.37264549 Ry
     estimated scf accuracy    <       1.93552240 Ry

     total magnetization       =     0.03 Bohr mag/cell
     absolute magnetization    =     3.66 Bohr mag/cell

     iteration #  5     ecut=    50.00 Ry     beta= 0.70
     Davidson diagonalization with overlap

---- Real-time Memory Report at c_bands before calling an iterative solver
           370 MiB given to the printing process from OS
             0 MiB allocation reported by mallinfo(arena+hblkhd)
           436 MiB available memory on the node where the printing process lives
------------------
     ethr =  4.03E-03,  avg # of iterations =  2.0

     total cpu time spent up to now is      236.2 secs

     total energy              =    -750.83032157 Ry
     estimated scf accuracy    <       2.12683949 Ry

     total magnetization       =    -0.04 Bohr mag/cell
     absolute magnetization    =     1.70 Bohr mag/cell

     iteration #  6     ecut=    50.00 Ry     beta= 0.70
     Davidson diagonalization with overlap

---- Real-time Memory Report at c_bands before calling an iterative solver
           371 MiB given to the printing process from OS
             0 MiB allocation reported by mallinfo(arena+hblkhd)
           436 MiB available memory on the node where the printing process lives
------------------
     ethr =  4.03E-03,  avg # of iterations =  1.1

     total cpu time spent up to now is      266.9 secs

     total energy              =    -750.99050801 Ry
     estimated scf accuracy    <       0.27438732 Ry

     total magnetization       =     0.07 Bohr mag/cell
     absolute magnetization    =     2.66 Bohr mag/cell

     iteration #  7     ecut=    50.00 Ry     beta= 0.70
     Davidson diagonalization with overlap

---- Real-time Memory Report at c_bands before calling an iterative solver
           371 MiB given to the printing process from OS
             0 MiB allocation reported by mallinfo(arena+hblkhd)
           435 MiB available memory on the node where the printing process lives
------------------
     ethr =  5.72E-04,  avg # of iterations =  3.2

     total cpu time spent up to now is      301.6 secs

     total energy              =    -751.03299908 Ry
     estimated scf accuracy    <       0.20683852 Ry

     total magnetization       =    -0.07 Bohr mag/cell
     absolute magnetization    =     2.84 Bohr mag/cell

     iteration #  8     ecut=    50.00 Ry     beta= 0.70
     Davidson diagonalization with overlap

---- Real-time Memory Report at c_bands before calling an iterative solver
           372 MiB given to the printing process from OS
             0 MiB allocation reported by mallinfo(arena+hblkhd)
           434 MiB available memory on the node where the printing process lives
------------------
     ethr =  4.31E-04,  avg # of iterations =  1.3

     total cpu time spent up to now is      333.0 secs

     total energy              =    -751.04437607 Ry
     estimated scf accuracy    <       0.03509710 Ry

     total magnetization       =     0.00 Bohr mag/cell
     absolute magnetization    =     2.95 Bohr mag/cell

     iteration #  9     ecut=    50.00 Ry     beta= 0.70
     Davidson diagonalization with overlap

---- Real-time Memory Report at c_bands before calling an iterative solver
           373 MiB given to the printing process from OS
             0 MiB allocation reported by mallinfo(arena+hblkhd)
           433 MiB available memory on the node where the printing process lives
------------------
     ethr =  7.31E-05,  avg # of iterations =  2.3

     total cpu time spent up to now is      361.8 secs

     total energy              =    -751.04196516 Ry
     estimated scf accuracy    <       0.01674331 Ry

     total magnetization       =    -0.00 Bohr mag/cell
     absolute magnetization    =     2.97 Bohr mag/cell

     iteration # 10     ecut=    50.00 Ry     beta= 0.70
     Davidson diagonalization with overlap

---- Real-time Memory Report at c_bands before calling an iterative solver
           374 MiB given to the printing process from OS
             0 MiB allocation reported by mallinfo(arena+hblkhd)
           433 MiB available memory on the node where the printing process lives
------------------
     ethr =  3.49E-05,  avg # of iterations =  1.9

     total cpu time spent up to now is      390.0 secs

     total energy              =    -751.04233008 Ry
     estimated scf accuracy    <       0.00173021 Ry

     total magnetization       =    -0.00 Bohr mag/cell
     absolute magnetization    =     2.96 Bohr mag/cell

     iteration # 11     ecut=    50.00 Ry     beta= 0.70
     Davidson diagonalization with overlap

---- Real-time Memory Report at c_bands before calling an iterative solver
           374 MiB given to the printing process from OS
             0 MiB allocation reported by mallinfo(arena+hblkhd)
           433 MiB available memory on the node where the printing process lives
------------------
     ethr =  3.60E-06,  avg # of iterations =  3.2

     total cpu time spent up to now is      423.3 secs

     total energy              =    -751.04278616 Ry
     estimated scf accuracy    <       0.00056965 Ry

     total magnetization       =    -0.00 Bohr mag/cell
     absolute magnetization    =     2.95 Bohr mag/cell

     iteration # 12     ecut=    50.00 Ry     beta= 0.70
     Davidson diagonalization with overlap

---- Real-time Memory Report at c_bands before calling an iterative solver
           374 MiB given to the printing process from OS
             0 MiB allocation reported by mallinfo(arena+hblkhd)
           433 MiB available memory on the node where the printing process lives
------------------
     ethr =  1.19E-06,  avg # of iterations =  1.6

     total cpu time spent up to now is      451.3 secs

     total energy              =    -751.04283919 Ry
     estimated scf accuracy    <       0.00001178 Ry

     total magnetization       =     0.00 Bohr mag/cell
     absolute magnetization    =     2.95 Bohr mag/cell

     iteration # 13     ecut=    50.00 Ry     beta= 0.70
     Davidson diagonalization with overlap

---- Real-time Memory Report at c_bands before calling an iterative solver
           374 MiB given to the printing process from OS
             0 MiB allocation reported by mallinfo(arena+hblkhd)
           433 MiB available memory on the node where the printing process lives
------------------
     ethr =  2.45E-08,  avg # of iterations =  2.0

     total cpu time spent up to now is      482.5 secs

     total energy              =    -751.04284178 Ry
     estimated scf accuracy    <       0.00000015 Ry

     total magnetization       =    -0.00 Bohr mag/cell
     absolute magnetization    =     2.96 Bohr mag/cell

     iteration # 14     ecut=    50.00 Ry     beta= 0.70
     Davidson diagonalization with overlap

---- Real-time Memory Report at c_bands before calling an iterative solver
           374 MiB given to the printing process from OS
             0 MiB allocation reported by mallinfo(arena+hblkhd)
           433 MiB available memory on the node where the printing process lives
------------------
     ethr =  3.16E-10,  avg # of iterations =  2.1

     total cpu time spent up to now is      517.1 secs

     total energy              =    -751.04284181 Ry
     estimated scf accuracy    <       0.00000004 Ry

     total magnetization       =     0.00 Bohr mag/cell
     absolute magnetization    =     2.96 Bohr mag/cell

     iteration # 15     ecut=    50.00 Ry     beta= 0.70
     Davidson diagonalization with overlap

---- Real-time Memory Report at c_bands before calling an iterative solver
           374 MiB given to the printing process from OS
             0 MiB allocation reported by mallinfo(arena+hblkhd)
           433 MiB available memory on the node where the printing process lives
------------------
     ethr =  7.74E-11,  avg # of iterations =  1.9

     total cpu time spent up to now is      546.9 secs

     total energy              =    -751.04284181 Ry
     estimated scf accuracy    <          1.1E-09 Ry

     total magnetization       =    -0.00 Bohr mag/cell
     absolute magnetization    =     2.96 Bohr mag/cell

     iteration # 16     ecut=    50.00 Ry     beta= 0.70
     Davidson diagonalization with overlap

---- Real-time Memory Report at c_bands before calling an iterative solver
           374 MiB given to the printing process from OS
             0 MiB allocation reported by mallinfo(arena+hblkhd)
           433 MiB available memory on the node where the printing process lives
------------------
     ethr =  2.33E-12,  avg # of iterations =  2.0

     total cpu time spent up to now is      580.9 secs

     total energy              =    -751.04284182 Ry
     estimated scf accuracy    <          1.0E-10 Ry

     total magnetization       =    -0.00 Bohr mag/cell
     absolute magnetization    =     2.96 Bohr mag/cell

     iteration # 17     ecut=    50.00 Ry     beta= 0.70
     Davidson diagonalization with overlap

---- Real-time Memory Report at c_bands before calling an iterative solver
           374 MiB given to the printing process from OS
             0 MiB allocation reported by mallinfo(arena+hblkhd)
           433 MiB available memory on the node where the printing process lives
------------------
     ethr =  2.12E-13,  avg # of iterations =  1.8

     Magnetic moment per site  (integrated on atomic sphere of radius R)
     atom   1 (R=0.206)  charge=  5.6606  magn= -0.0000
     atom   2 (R=0.206)  charge=  5.6606  magn= -0.0000
     atom   3 (R=0.206)  charge= 15.6783  magn=  1.3342
     atom   4 (R=0.206)  charge= 15.6783  magn= -1.3342

     total cpu time spent up to now is      609.7 secs

     End of self-consistent calculation

 ------ SPIN UP ------------


          k = 0.0000 0.0000 0.0000 (  1443 PWs)   bands (ev):

   -89.9957 -88.1302 -50.3999 -50.3681 -50.3681 -48.5866 -48.5671 -48.5671
    -5.9409  -4.5205   6.1753   8.8341   8.8341  11.4355  11.4355  11.4427
    11.9258  11.9258  12.0188  12.3696  12.3696  13.3101  13.3101  13.5827
    15.8573  15.8573  16.0250  20.0018  24.5266  28.4938

     occupation numbers 
     1.0000   1.0000   1.0000   1.0000   1.0000   1.0000   1.0000   1.0000
     1.0000   1.0000   1.0000   1.0000   1.0000   1.0000   1.0000   1.0000
     1.0000   1.0000   1.0000   1.0000   1.0000   1.0000   1.0000   1.0000
    -0.0000  -0.0000  -0.0000  -0.0000  -0.0000  -0.0000

          k = 0.1875-0.0625-0.0625 (  1463 PWs)   bands (ev):

   -89.9955 -88.1299 -50.3994 -50.3715 -50.3690 -48.5861 -48.5709 -48.5680
    -5.7772  -4.4949   6.4494   8.7345   8.8786  10.0844  10.8352  10.8672
    11.9570  12.2771  12.3070  12.5458  12.9544  13.3985  13.4030  13.5775
    15.3627  15.7539  17.0256  20.9210  24.3083  27.3079

     occupation numbers 
     1.0000   1.0000   1.0000   1.0000   1.0000   1.0000   1.0000   1.0000
     1.0000   1.0000   1.0000   1.0000   1.0000   1.0000   1.0000   1.0000
     1.0000   1.0000   1.0000   1.0000   1.0000   1.0000   1.0000   1.0000
    -0.0000  -0.0000  -0.0000  -0.0000  -0.0000  -0.0000

          k = 0.3750-0.1250-0.1250 (  1452 PWs)   bands (ev):

   -89.9948 -88.1292 -50.3982 -50.3798 -50.3711 -48.5849 -48.5801 -48.5704
    -5.3517  -4.4307   7.1273   8.3587   8.5079   8.9771   9.9836  10.2111
    11.9013  12.4298  12.5669  12.9104  13.0695  13.3663  13.6601  13.6916
    15.0268  15.5300  18.9721  22.7045  23.7923  25.5775

     occupation numbers 
     1.0000   1.0000   1.0000   1.0000   1.0000   1.0000   1.0000   1.0000
     1.0000   1.0000   1.0000   1.0000   1.0000   1.0000   1.0000   1.0000
     1.0000   1.0000   1.0000   1.0000   1.0000   1.0000   1.0000   1.0000
    -0.0000  -0.0000  -0.0000  -0.0000  -0.0000  -0.0000

          k = 0.5625-0.1875-0.1875 (  1458 PWs)   bands (ev):

   -89.9941 -88.1285 -50.3971 -50.3880 -50.3732 -48.5893 -48.5836 -48.5727
    -4.8506  -4.3900   7.4147   7.5717   8.1566   9.0611   9.2676   9.7689
    11.8625  12.4952  12.8073  12.9193  13.2352  13.2773  13.8006  13.8227
    15.2308  15.3373  20.7264  22.9928  23.9000  25.1383

     occupation numbers 
     1.0000   1.0000   1.0000   1.0000   1.0000   1.0000   1.0000   1.0000
     1.0000   1.0000   1.0000   1.0000   1.0000   1.0000   1.0000   1.0000
     1.0000   1.0000   1.0000   1.0000   1.0000   1.0000   1.0000   1.0000
    -0.0000  -0.0000  -0.0000  -0.0000  -0.0000  -0.0000

          k =-0.7500 0.2500 0.2500 (  1448 PWs)   bands (ev):

   -89.9939 -88.1282 -50.3966 -50.3914 -50.3740 -48.5932 -48.5831 -48.5737
    -4.5067  -4.4917   7.1715   7.2588   8.5180   8.8513   9.0925   9.6120
    11.8559  12.5199  12.8324  12.8341  13.4300  13.5729  13.6898  13.8450
    15.2673  15.3006  21.9119  22.0642  24.1903  24.3328

     occupation numbers 
     1.0000   1.0000   1.0000   1.0000   1.0000   1.0000   1.0000   1.0000
     1.0000   1.0000   1.0000   1.0000   1.0000   1.0000   1.0000   1.0000
     1.0000   1.0000   1.0000   1.0000   1.0000   1.0000   1.0000   1.0000
    -0.0000  -0.0000  -0.0000  -0.0000  -0.0000  -0.0000

          k = 0.1250 0.1250-0.1250 (  1459 PWs)   bands (ev):

   -89.9955 -88.1299 -50.3994 -50.3715 -50.3690 -48.5861 -48.5709 -48.5680
    -5.7619  -4.5159   6.4966   8.7234   8.9463  10.1575  10.6464  10.6604
    12.0386  12.1407  12.2654  12.8682  12.9818  13.2946  13.5226  13.5871
    15.4927  15.5761  17.0336  20.9009  24.3295  27.3852

     occupation numbers 
     1.0000   1.0000   1.0000   1.0000   1.0000   1.0000   1.0000   1.0000
     1.0000   1.0000   1.0000   1.0000   1.0000   1.0000   1.0000   1.0000
     1.0000   1.0000   1.0000   1.0000   1.0000   1.0000   1.0000   1.0000
    -0.0000  -0.0000  -0.0000  -0.0000  -0.0000  -0.0000

          k = 0.3125 0.0625-0.1875 (  1460 PWs)   bands (ev):

   -89.9950 -88.1294 -50.3986 -50.3770 -50.3708 -48.5852 -48.5770 -48.5701
    -5.4559  -4.4821   6.9809   8.6097   8.7624   9.0595   9.9752  10.2937
    12.0615  12.3520  12.4805  12.7665  13.1982  13.3092  13.6634  13.7172
    15.1233  15.4710  18.4756  22.1017  24.0992  26.2023

     occupation numbers 
     1.0000   1.0000   1.0000   1.0000   1.0000   1.0000   1.0000   1.0000
     1.0000   1.0000   1.0000   1.0000   1.0000   1.0000   1.0000   1.0000
     1.0000   1.0000   1.0000   1.0000   1.0000   1.0000   1.0000   1.0000
    -0.0000  -0.0000  -0.0000  -0.0000  -0.0000  -0.0000

          k = 0.5000 0.0000-0.2500 (  1459 PWs)   bands (ev):

   -89.9943 -88.1287 -50.3974 -50.3844 -50.3737 -48.5853 -48.5840 -48.5734
    -4.9951  -4.4134   7.4663   7.7166   8.4164   8.9166   9.5195   9.6973
    12.0511  12.5139  12.6744  12.7975  13.0878  13.4054  13.5995  13.8053
    15.1514  15.4436  20.3177  23.2211  24.0272  25.1739

     occupation numbers 
     1.0000   1.0000   1.0000   1.0000   1.0000   1.0000   1.0000   1.0000
     1.0000   1.0000   1.0000   1.0000   1.0000   1.0000   1.0000   1.0000
     1.0000   1.0000   1.0000   1.0000   1.0000   1.0000   1.0000   1.0000
    -0.0000  -0.0000  -0.0000  -0.0000  -0.0000  -0.0000

          k =-0.8125 0.4375 0.1875 (  1459 PWs)   bands (ev):

   -89.9939 -88.1282 -50.3966 -50.3896 -50.3759 -48.5911 -48.5831 -48.5757
    -4.5917  -4.4085   7.2978   7.3292   8.4451   8.9614   9.0631   9.3227
    12.0646  12.5164  12.7689  12.9614  13.1191  13.4789  13.7193  13.8107
    15.2612  15.3796  21.8054  22.9956  23.7249  24.9316

     occupation numbers 
     1.0000   1.0000   1.0000   1.0000   1.0000   1.0000   1.0000   1.0000
     1.0000   1.0000   1.0000   1.0000   1.0000   1.0000   1.0000   1.0000
     1.0000   1.0000   1.0000   1.0000   1.0000   1.0000   1.0000   1.0000
    -0.0000  -0.0000  -0.0000  -0.0000  -0.0000  -0.0000

          k =-0.6250 0.3750 0.1250 (  1455 PWs)   bands (ev):

   -89.9939 -88.1282 -50.3966 -50.3896 -50.3759 -48.5911 -48.5831 -48.5757
    -4.6079  -4.3932   7.1369   7.6543   8.4313   8.9017   8.9703   9.2684
    12.1050  12.5206  12.7698  12.9640  13.1919  13.3585  13.7477  13.8013
    15.1156  15.6006  21.6273  22.6999  24.4284  24.7396

     occupation numbers 
     1.0000   1.0000   1.0000   1.0000   1.0000   1.0000   1.0000   1.0000
     1.0000   1.0000   1.0000   1.0000   1.0000   1.0000   1.0000   1.0000
     1.0000   1.0000   1.0000   1.0000   1.0000   1.0000   1.0000   1.0000
    -0.0000  -0.0000  -0.0000  -0.0000  -0.0000  -0.0000

          k =-0.4375 0.3125 0.0625 (  1460 PWs)   bands (ev):

   -89.9943 -88.1287 -50.3974 -50.3844 -50.3738 -48.5853 -48.5840 -48.5734
    -5.0285  -4.3777   7.6644   7.7678   8.2301   8.9559   9.3477   9.6130
    12.1424  12.4871  12.6785  12.9020  13.1260  13.3289  13.6515  13.7798
    15.0935  15.5990  20.0196  23.2428  24.0797  25.1959

     occupation numbers 
     1.0000   1.0000   1.0000   1.0000   1.0000   1.0000   1.0000   1.0000
     1.0000   1.0000   1.0000   1.0000   1.0000   1.0000   1.0000   1.0000
     1.0000   1.0000   1.0000   1.0000   1.0000   1.0000   1.0000   1.0000
    -0.0000  -0.0000  -0.0000  -0.0000  -0.0000  -0.0000

          k =-0.2500 0.2500 0.0000 (  1459 PWs)   bands (ev):

   -89.9950 -88.1294 -50.3986 -50.3770 -50.3708 -48.5852 -48.5770 -48.5701
    -5.4919  -4.4370   6.9237   8.5487   8.8304   9.1075   9.9080  10.3290
    12.1101  12.4529  12.4571  12.6870  13.1601  13.3140  13.6531  13.7627
    15.2713  15.3931  18.2783  22.2977  23.8554  26.1837

     occupation numbers 
     1.0000   1.0000   1.0000   1.0000   1.0000   1.0000   1.0000   1.0000
     1.0000   1.0000   1.0000   1.0000   1.0000   1.0000   1.0000   1.0000
     1.0000   1.0000   1.0000   1.0000   1.0000   1.0000   1.0000   1.0000
    -0.0000  -0.0000  -0.0000  -0.0000  -0.0000  -0.0000

          k = 0.2500 0.2500-0.2500 (  1457 PWs)   bands (ev):

   -89.9948 -88.1292 -50.3982 -50.3798 -50.3711 -48.5849 -48.5801 -48.5704
    -5.2951  -4.4995   7.2195   8.2622   8.6349   9.2066   9.7409   9.8279
    11.9871  12.3546  12.4798  13.0533  13.1483  13.4508  13.7675  13.9043
    15.2626  15.2902  18.7490  21.9896  24.2573  26.1148

     occupation numbers 
     1.0000   1.0000   1.0000   1.0000   1.0000   1.0000   1.0000   1.0000
     1.0000   1.0000   1.0000   1.0000   1.0000   1.0000   1.0000   1.0000
     1.0000   1.0000   1.0000   1.0000   1.0000   1.0000   1.0000   1.0000
    -0.0000  -0.0000  -0.0000  -0.0000  -0.0000  -0.0000

          k = 0.4375 0.1875-0.3125 (  1466 PWs)   bands (ev):

   -89.9943 -88.1287 -50.3974 -50.3844 -50.3738 -48.5853 -48.5840 -48.5734
    -4.9542  -4.4579   7.4144   7.5184   8.8465   9.1033   9.2396   9.5524
    12.0881  12.3522  12.6182  12.9523  13.1529  13.4939  13.6349  13.8483
    15.1576  15.6003  19.9667  22.1523  24.7022  25.6097

     occupation numbers 
     1.0000   1.0000   1.0000   1.0000   1.0000   1.0000   1.0000   1.0000
     1.0000   1.0000   1.0000   1.0000   1.0000   1.0000   1.0000   1.0000
     1.0000   1.0000   1.0000   1.0000   1.0000   1.0000   1.0000   1.0000
    -0.0000  -0.0000  -0.0000  -0.0000  -0.0000  -0.0000

          k =-0.8750 0.6250 0.1250 (  1455 PWs)   bands (ev):

   -89.9939 -88.1282 -50.3966 -50.3871 -50.3784 -48.5883 -48.5831 -48.5785
    -4.6078  -4.3933   7.1379   7.6575   8.4348   8.8233   9.0706   9.2339
    12.2557  12.4148  12.6033  13.0360  13.1702  13.5500  13.6393  13.7978
    15.1133  15.5987  21.6285  22.7008  24.4265  24.7365

     occupation numbers 
     1.0000   1.0000   1.0000   1.0000   1.0000   1.0000   1.0000   1.0000
     1.0000   1.0000   1.0000   1.0000   1.0000   1.0000   1.0000   1.0000
     1.0000   1.0000   1.0000   1.0000   1.0000   1.0000   1.0000   1.0000
    -0.0000  -0.0000  -0.0000  -0.0000  -0.0000  -0.0000

          k =-0.6875 0.5625 0.0625 (  1454 PWs)   bands (ev):

   -89.9937 -88.1280 -50.3963 -50.3873 -50.3812 -48.5885 -48.5828 -48.5816
    -4.4232  -4.4025   7.3168   7.5713   8.3577   8.5148   8.9423   9.0261
    12.3672  12.5385  12.6113  13.0135  13.2050  13.4202  13.7107  13.7543
    15.1924  15.5622  22.9872  23.1266  23.7814  24.2900

     occupation numbers 
     1.0000   1.0000   1.0000   1.0000   1.0000   1.0000   1.0000   1.0000
     1.0000   1.0000   1.0000   1.0000   1.0000   1.0000   1.0000   1.0000
     1.0000   1.0000   1.0000   1.0000   1.0000   1.0000   1.0000   1.0000
    -0.0000  -0.0000  -0.0000  -0.0000  -0.0000  -0.0000

          k =-0.5000 0.5000 0.0000 (  1466 PWs)   bands (ev):

   -89.9939 -88.1282 -50.3966 -50.3871 -50.3784 -48.5883 -48.5831 -48.5785
    -4.6536  -4.3503   7.2030   8.2580   8.2642   8.6342   8.9040   8.9905
    12.3559  12.5615  12.6575  12.9282  13.0943  13.3321  13.6271  13.7882
    14.9531  15.8971  21.5158  23.0574  25.1353  25.4553

     occupation numbers 
     1.0000   1.0000   1.0000   1.0000   1.0000   1.0000   1.0000   1.0000
     1.0000   1.0000   1.0000   1.0000   1.0000   1.0000   1.0000   1.0000
     1.0000   1.0000   1.0000   1.0000   1.0000   1.0000   1.0000   1.0000
    -0.0000  -0.0000  -0.0000  -0.0000  -0.0000  -0.0000

          k = 0.3750 0.3750-0.3750 (  1476 PWs)   bands (ev):

   -89.9941 -88.1285 -50.3971 -50.3880 -50.3732 -48.5893 -48.5836 -48.5727
    -4.7647  -4.4757   6.7548   7.4989   9.0201   9.0366   9.4089   9.8788
    11.5882  12.5013  12.6301  13.0358  13.0782  13.4550  13.7168  13.7562
    15.6583  15.7271  19.8302  21.2413  24.9048  24.9606

     occupation numbers 
     1.0000   1.0000   1.0000   1.0000   1.0000   1.0000   1.0000   1.0000
     1.0000   1.0000   1.0000   1.0000   1.0000   1.0000   1.0000   1.0000
     1.0000   1.0000   1.0000   1.0000   1.0000   1.0000   1.0000   1.0000
    -0.0000  -0.0000  -0.0000  -0.0000  -0.0000  -0.0000

          k =-0.9375 0.8125 0.0625 (  1466 PWs)   bands (ev):

   -89.9939 -88.1282 -50.3966 -50.3896 -50.3759 -48.5911 -48.5831 -48.5757
    -4.5556  -4.4366   6.4983   7.5705   8.7915   8.9464   9.3241   9.7050
    11.7251  12.4691  12.6464  13.0066  13.1246  13.5327  13.6987  13.7850
    15.4727  15.8479  20.6690  21.3115  24.4585  24.9786

     occupation numbers 
     1.0000   1.0000   1.0000   1.0000   1.0000   1.0000   1.0000   1.0000
     1.0000   1.0000   1.0000   1.0000   1.0000   1.0000   1.0000   1.0000
     1.0000   1.0000   1.0000   1.0000   1.0000   1.0000   1.0000   1.0000
    -0.0000  -0.0000  -0.0000  -0.0000  -0.0000  -0.0000

          k =-0.7500 0.7500 0.0000 (  1446 PWs)   bands (ev):

   -89.9937 -88.1280 -50.3963 -50.3873 -50.3812 -48.5885 -48.5827 -48.5816
    -4.4366  -4.3843   6.9190   7.8497   8.1482   8.5387   8.9850   9.4039
    12.1614  12.5074  12.5737  13.0581  13.3386  13.5663  13.6732  13.8044
    15.2682  15.5350  22.3015  22.3284  23.8591  24.8001

     occupation numbers 
     1.0000   1.0000   1.0000   1.0000   1.0000   1.0000   1.0000   1.0000
     1.0000   1.0000   1.0000   1.0000   1.0000   1.0000   1.0000   1.0000
     1.0000   1.0000   1.0000   1.0000   1.0000   1.0000   1.0000   1.0000
    -0.0000  -0.0000  -0.0000  -0.0000  -0.0000  -0.0000

          k =-0.5000-0.5000 0.5000 (  1458 PWs)   bands (ev):

   -89.9939 -88.1282 -50.3966 -50.3914 -50.3740 -48.5931 -48.5831 -48.5737
    -4.5200  -4.4638   6.1709   7.4704   8.8384   8.8588  10.1197  10.1237
    11.1319  12.4400  12.6637  12.8780  13.0543  13.4641  13.7062  13.8252
    15.9031  15.9697  20.0050  20.6883  24.5244  25.0273

     occupation numbers 
     1.0000   1.0000   1.0000   1.0000   1.0000   1.0000   1.0000   1.0000
     1.0000   1.0000   1.0000   1.0000   1.0000   1.0000   1.0000   1.0000
     1.0000   1.0000   1.0000   1.0000   1.0000   1.0000   1.0000   1.0000
    -0.0000  -0.0000  -0.0000  -0.0000  -0.0000  -0.0000

          k = 0.0625 0.0625 0.0625 (  1467 PWs)   bands (ev):

   -89.9957 -88.1302 -50.3999 -50.3681 -50.3681 -48.5866 -48.5671 -48.5671
    -5.8951  -4.5857   6.3260   8.8827   8.8827  11.0054  11.1565  11.1565
    11.9411  11.9411  12.1658  12.6503  12.6503  13.2969  13.2969  13.5403
    15.7930  15.7930  16.3186  19.9788  24.6050  28.6567

     occupation numbers 
     1.0000   1.0000   1.0000   1.0000   1.0000   1.0000   1.0000   1.0000
     1.0000   1.0000   1.0000   1.0000   1.0000   1.0000   1.0000   1.0000
     1.0000   1.0000   1.0000   1.0000   1.0000   1.0000   1.0000   1.0000
    -0.0000  -0.0000  -0.0000  -0.0000  -0.0000  -0.0000

          k = 0.2500 0.0000 0.0000 (  1464 PWs)   bands (ev):

   -89.9955 -88.1299 -50.3994 -50.3715 -50.3690 -48.5861 -48.5709 -48.5681
    -5.7078  -4.5882   6.6448   8.8432   8.8996   9.6631  10.8569  10.8654
    11.8559  12.2771  12.4597  12.5410  12.8848  13.3235  13.4623  13.5688
    15.1383  15.8306  17.4845  20.7982  24.5373  27.4149

     occupation numbers 
     1.0000   1.0000   1.0000   1.0000   1.0000   1.0000   1.0000   1.0000
     1.0000   1.0000   1.0000   1.0000   1.0000   1.0000   1.0000   1.0000
     1.0000   1.0000   1.0000   1.0000   1.0000   1.0000   1.0000   1.0000
    -0.0000  -0.0000  -0.0000  -0.0000  -0.0000  -0.0000

          k = 0.4375-0.0625-0.0625 (  1459 PWs)   bands (ev):

   -89.9948 -88.1292 -50.3982 -50.3798 -50.3711 -48.5849 -48.5801 -48.5704
    -5.2831  -4.5117   7.1308   8.2283   8.6071   8.9412  10.2594  10.3450
    11.7207  12.4734  12.6031  12.6857  12.9568  13.3706  13.5742  13.7256
    14.7920  15.7218  19.4413  22.2529  24.4570  25.4668

     occupation numbers 
     1.0000   1.0000   1.0000   1.0000   1.0000   1.0000   1.0000   1.0000
     1.0000   1.0000   1.0000   1.0000   1.0000   1.0000   1.0000   1.0000
     1.0000   1.0000   1.0000   1.0000   1.0000   1.0000   1.0000   1.0000
    -0.0000  -0.0000  -0.0000  -0.0000  -0.0000  -0.0000

          k =-0.8750 0.3750 0.3750 (  1454 PWs)   bands (ev):

   -89.9941 -88.1285 -50.3971 -50.3880 -50.3732 -48.5893 -48.5837 -48.5727
    -4.8096  -4.4305   7.1231   7.4670   8.4441   8.9693   9.5863   9.9484
    11.6890  12.4731  12.8037  12.9030  13.1068  13.3024  13.7152  13.8604
    15.0665  15.5527  20.9620  22.7069  23.7897  25.5770

     occupation numbers 
     1.0000   1.0000   1.0000   1.0000   1.0000   1.0000   1.0000   1.0000
     1.0000   1.0000   1.0000   1.0000   1.0000   1.0000   1.0000   1.0000
     1.0000   1.0000   1.0000   1.0000   1.0000   1.0000   1.0000   1.0000
    -0.0000  -0.0000  -0.0000  -0.0000  -0.0000  -0.0000

          k =-0.6875 0.3125 0.3125 (  1461 PWs)   bands (ev):

   -89.9939 -88.1282 -50.3966 -50.3914 -50.3740 -48.5931 -48.5831 -48.5737
    -4.5110  -4.4853   6.8422   7.4466   8.6146   8.9820   9.0350   9.7017
    11.7799  12.5142  12.7524  12.9313  13.4210  13.4442  13.6933  13.8431
    15.3847  15.3907  21.6077  21.7533  24.1640  24.6940

     occupation numbers 
     1.0000   1.0000   1.0000   1.0000   1.0000   1.0000   1.0000   1.0000
     1.0000   1.0000   1.0000   1.0000   1.0000   1.0000   1.0000   1.0000
     1.0000   1.0000   1.0000   1.0000   1.0000   1.0000   1.0000   1.0000
    -0.0000  -0.0000  -0.0000  -0.0000  -0.0000  -0.0000

          k =-0.5000 0.2500 0.2500 (  1460 PWs)   bands (ev):

   -89.9941 -88.1285 -50.3971 -50.3880 -50.3732 -48.5893 -48.5836 -48.5727
    -4.8565  -4.3843   7.2394   7.8512   8.1489   9.1166   9.1380   9.6534
    11.9111  12.5060  12.7266  12.9379  13.3052  13.3241  13.7774  13.8507
    15.2707  15.4861  20.3248  22.3342  24.7953  24.9661

     occupation numbers 
     1.0000   1.0000   1.0000   1.0000   1.0000   1.0000   1.0000   1.0000
     1.0000   1.0000   1.0000   1.0000   1.0000   1.0000   1.0000   1.0000
     1.0000   1.0000   1.0000   1.0000   1.0000   1.0000   1.0000   1.0000
    -0.0000  -0.0000  -0.0000  -0.0000  -0.0000  -0.0000

          k =-0.3125 0.1875 0.1875 (  1459 PWs)   bands (ev):

   -89.9948 -88.1292 -50.3983 -50.3798 -50.3711 -48.5849 -48.5801 -48.5704
    -5.3559  -4.4264   7.1616   8.3967   8.5012   9.0746   9.7820  10.0125
    12.0031  12.3873  12.5193  13.0457  13.0864  13.4429  13.7243  13.8148
    15.2397  15.3275  18.6872  22.5060  23.8142  25.8181

     occupation numbers 
     1.0000   1.0000   1.0000   1.0000   1.0000   1.0000   1.0000   1.0000
     1.0000   1.0000   1.0000   1.0000   1.0000   1.0000   1.0000   1.0000
     1.0000   1.0000   1.0000   1.0000   1.0000   1.0000   1.0000   1.0000
    -0.0000  -0.0000  -0.0000  -0.0000  -0.0000  -0.0000

          k = 0.1875 0.1875-0.0625 (  1454 PWs)   bands (ev):

   -89.9955 -88.1299 -50.3994 -50.3715 -50.3690 -48.5861 -48.5709 -48.5680
    -5.6635  -4.6464   6.7775   8.8173   9.0948   9.6758  10.3262  10.5991
    12.0506  12.0925  12.3998  12.9452  13.0680  13.1575  13.5560  13.7288
    15.3685  15.4786  17.5254  20.7237  24.6343  27.6483

     occupation numbers 
     1.0000   1.0000   1.0000   1.0000   1.0000   1.0000   1.0000   1.0000
     1.0000   1.0000   1.0000   1.0000   1.0000   1.0000   1.0000   1.0000
     1.0000   1.0000   1.0000   1.0000   1.0000   1.0000   1.0000   1.0000
    -0.0000  -0.0000  -0.0000  -0.0000  -0.0000  -0.0000

          k = 0.3750 0.1250-0.1250 (  1458 PWs)   bands (ev):

   -89.9950 -88.1294 -50.3986 -50.3770 -50.3708 -48.5853 -48.5770 -48.5701
    -5.3517  -4.6081   7.1420   8.4311   8.8518   9.1328   9.9596  10.2252
    11.9757  12.2613  12.5078  12.8430  13.1728  13.3180  13.5997  13.7586
    14.9641  15.5088  18.9725  21.6293  24.7313  26.2864

     occupation numbers 
     1.0000   1.0000   1.0000   1.0000   1.0000   1.0000   1.0000   1.0000
     1.0000   1.0000   1.0000   1.0000   1.0000   1.0000   1.0000   1.0000
     1.0000   1.0000   1.0000   1.0000   1.0000   1.0000   1.0000   1.0000
    -0.0000  -0.0000  -0.0000  -0.0000  -0.0000  -0.0000

          k =-0.9375 0.5625 0.3125 (  1461 PWs)   bands (ev):

   -89.9943 -88.1287 -50.3974 -50.3844 -50.3737 -48.5853 -48.5840 -48.5734
    -4.9185  -4.4946   7.2517   7.5987   8.6862   8.9565   9.6054   9.8564
    11.8873  12.4704  12.5841  12.8446  13.0987  13.4606  13.5861  13.8455
    15.0446  15.4802  20.6479  22.4573  24.4221  25.5423

     occupation numbers 
     1.0000   1.0000   1.0000   1.0000   1.0000   1.0000   1.0000   1.0000
     1.0000   1.0000   1.0000   1.0000   1.0000   1.0000   1.0000   1.0000
     1.0000   1.0000   1.0000   1.0000   1.0000   1.0000   1.0000   1.0000
    -0.0000  -0.0000  -0.0000  -0.0000  -0.0000  -0.0000

          k =-0.7500 0.5000 0.2500 (  1456 PWs)   bands (ev):

   -89.9939 -88.1282 -50.3966 -50.3896 -50.3759 -48.5911 -48.5831 -48.5757
    -4.5603  -4.4364   6.9192   7.4119   8.5574   8.9576   9.3413   9.4053
    11.9415  12.5059  12.6666  13.0082  13.1127  13.5237  13.7264  13.8137
    15.2824  15.4702  21.6692  22.3012  23.8540  24.9725

     occupation numbers 
     1.0000   1.0000   1.0000   1.0000   1.0000   1.0000   1.0000   1.0000
     1.0000   1.0000   1.0000   1.0000   1.0000   1.0000   1.0000   1.0000
     1.0000   1.0000   1.0000   1.0000   1.0000   1.0000   1.0000   1.0000
    -0.0000  -0.0000  -0.0000  -0.0000  -0.0000  -0.0000

          k =-0.5625 0.4375 0.1875 (  1460 PWs)   bands (ev):

   -89.9939 -88.1282 -50.3966 -50.3896 -50.3759 -48.5911 -48.5831 -48.5757
    -4.6065  -4.3928   6.8777   7.7429   8.6859   8.9271   8.9532   9.2541
    12.0649  12.5103  12.7133  12.9927  13.1590  13.3550  13.7582  13.7982
    15.1259  15.8234  21.1999  22.1476  24.6035  24.9266

     occupation numbers 
     1.0000   1.0000   1.0000   1.0000   1.0000   1.0000   1.0000   1.0000
     1.0000   1.0000   1.0000   1.0000   1.0000   1.0000   1.0000   1.0000
     1.0000   1.0000   1.0000   1.0000   1.0000   1.0000   1.0000   1.0000
    -0.0000  -0.0000  -0.0000  -0.0000  -0.0000  -0.0000

          k =-0.3750 0.3750 0.1250 (  1458 PWs)   bands (ev):

   -89.9943 -88.1287 -50.3974 -50.3844 -50.3738 -48.5853 -48.5840 -48.5734
    -5.0143  -4.3935   7.6015   7.6731   8.4347   9.0312   9.2708   9.5466
    12.1534  12.4357  12.6352  12.9434  13.2120  13.3433  13.6572  13.8034
    15.0665  15.6935  19.8678  22.7010  24.4277  25.4442

     occupation numbers 
     1.0000   1.0000   1.0000   1.0000   1.0000   1.0000   1.0000   1.0000
     1.0000   1.0000   1.0000   1.0000   1.0000   1.0000   1.0000   1.0000
     1.0000   1.0000   1.0000   1.0000   1.0000   1.0000   1.0000   1.0000
    -0.0000  -0.0000  -0.0000  -0.0000  -0.0000  -0.0000

          k = 0.3125 0.3125-0.1875 (  1464 PWs)   bands (ev):

   -89.9948 -88.1292 -50.3982 -50.3798 -50.3711 -48.5849 -48.5801 -48.5704
    -5.1763  -4.6355   7.3147   7.9378   9.0244   9.2667   9.7148   9.7840
    11.8696  12.3443  12.4711  13.0901  13.1250  13.4032  13.7371  13.8277
    15.1708  15.4083  19.1824  21.4653  24.8861  26.2611

     occupation numbers 
     1.0000   1.0000   1.0000   1.0000   1.0000   1.0000   1.0000   1.0000
     1.0000   1.0000   1.0000   1.0000   1.0000   1.0000   1.0000   1.0000
     1.0000   1.0000   1.0000   1.0000   1.0000   1.0000   1.0000   1.0000
    -0.0000  -0.0000  -0.0000  -0.0000  -0.0000  -0.0000

          k =-1.0000 0.7500 0.2500 (  1470 PWs)   bands (ev):

   -89.9943 -88.1287 -50.3974 -50.3844 -50.3738 -48.5853 -48.5840 -48.5734
    -4.8565  -4.5602   7.2349   7.4255   9.0539   9.2032   9.3391   9.6227
    11.9618  12.2729  12.6259  12.8806  13.1855  13.5544  13.6356  13.8634
    15.2850  15.4105  20.3258  21.6734  24.9623  25.3009

     occupation numbers 
     1.0000   1.0000   1.0000   1.0000   1.0000   1.0000   1.0000   1.0000
     1.0000   1.0000   1.0000   1.0000   1.0000   1.0000   1.0000   1.0000
     1.0000   1.0000   1.0000   1.0000   1.0000   1.0000   1.0000   1.0000
    -0.0000  -0.0000  -0.0000  -0.0000  -0.0000  -0.0000

          k =-0.8125 0.6875 0.1875 (  1456 PWs)   bands (ev):

   -89.9939 -88.1282 -50.3966 -50.3871 -50.3784 -48.5882 -48.5831 -48.5785
    -4.5577  -4.4415   7.1362   7.3926   8.5196   8.7569   9.2089   9.4291
    12.1693  12.2934  12.6125  13.0495  13.3004  13.6555  13.7003  13.7896
    15.2209  15.3798  21.7642  22.3244  24.2250  24.4524

     occupation numbers 
     1.0000   1.0000   1.0000   1.0000   1.0000   1.0000   1.0000   1.0000
     1.0000   1.0000   1.0000   1.0000   1.0000   1.0000   1.0000   1.0000
     1.0000   1.0000   1.0000   1.0000   1.0000   1.0000   1.0000   1.0000
    -0.0000  -0.0000  -0.0000  -0.0000  -0.0000  -0.0000

          k =-0.6250 0.6250 0.1250 (  1449 PWs)   bands (ev):

   -89.9937 -88.1280 -50.3963 -50.3873 -50.3812 -48.5885 -48.5828 -48.5816
    -4.4305  -4.3932   7.1231   7.6542   8.3966   8.4505   9.0150   9.1344
    12.2950  12.5258  12.5838  13.0432  13.2415  13.4804  13.6945  13.7838
    15.1583  15.6224  22.6891  22.7114  23.7982  24.4318

     occupation numbers 
     1.0000   1.0000   1.0000   1.0000   1.0000   1.0000   1.0000   1.0000
     1.0000   1.0000   1.0000   1.0000   1.0000   1.0000   1.0000   1.0000
     1.0000   1.0000   1.0000   1.0000   1.0000   1.0000   1.0000   1.0000
    -0.0000  -0.0000  -0.0000  -0.0000  -0.0000  -0.0000

          k =-0.4375 0.5625 0.0625 (  1458 PWs)   bands (ev):

   -89.9939 -88.1282 -50.3966 -50.3871 -50.3784 -48.5883 -48.5831 -48.5785
    -4.6416  -4.3614   7.1792   7.9777   8.3676   8.7751   8.9475   9.0356
    12.3300  12.5353  12.6127  13.0081  13.0611  13.4144  13.6231  13.7934
    15.0012  15.8103  21.5455  22.9704  24.8374  25.0887

     occupation numbers 
     1.0000   1.0000   1.0000   1.0000   1.0000   1.0000   1.0000   1.0000
     1.0000   1.0000   1.0000   1.0000   1.0000   1.0000   1.0000   1.0000
     1.0000   1.0000   1.0000   1.0000   1.0000   1.0000   1.0000   1.0000
    -0.0000  -0.0000  -0.0000  -0.0000  -0.0000  -0.0000

          k =-0.5625-0.5625 0.6875 (  1470 PWs)   bands (ev):

   -89.9941 -88.1285 -50.3971 -50.3880 -50.3732 -48.5893 -48.5836 -48.5727
    -4.6809  -4.5590   6.6282   7.4190   8.9414   9.0317   9.9031  10.0543
    11.3546  12.4835  12.6001  12.8414  13.1142  13.4889  13.6896  13.7756
    15.5486  15.8270  20.1327  20.9968  24.7453  25.0485

     occupation numbers 
     1.0000   1.0000   1.0000   1.0000   1.0000   1.0000   1.0000   1.0000
     1.0000   1.0000   1.0000   1.0000   1.0000   1.0000   1.0000   1.0000
     1.0000   1.0000   1.0000   1.0000   1.0000   1.0000   1.0000   1.0000
    -0.0000  -0.0000  -0.0000  -0.0000  -0.0000  -0.0000

          k =-0.3750-0.6250 0.6250 (  1463 PWs)   bands (ev):

   -89.9939 -88.1282 -50.3966 -50.3896 -50.3759 -48.5911 -48.5831 -48.5757
    -4.5156  -4.4755   6.4923   7.4973   8.7276   8.9696   9.3706   9.8728
    11.6307  12.4680  12.6291  13.0244  13.1437  13.5611  13.6955  13.7848
    15.5488  15.6817  20.9037  21.2397  24.3280  24.9514

     occupation numbers 
     1.0000   1.0000   1.0000   1.0000   1.0000   1.0000   1.0000   1.0000
     1.0000   1.0000   1.0000   1.0000   1.0000   1.0000   1.0000   1.0000
     1.0000   1.0000   1.0000   1.0000   1.0000   1.0000   1.0000   1.0000
    -0.0000  -0.0000  -0.0000  -0.0000  -0.0000  -0.0000

          k =-0.1875-0.6875 0.5625 (  1453 PWs)   bands (ev):

   -89.9937 -88.1280 -50.3963 -50.3873 -50.3812 -48.5885 -48.5827 -48.5816
    -4.4351  -4.3866   6.9738   7.7660   8.2593   8.4989   8.9992   9.3255
    12.2035  12.5100  12.5776  13.0525  13.3107  13.5406  13.6786  13.7992
    15.2119  15.5870  22.4003  22.4357  23.8429  24.6104

     occupation numbers 
     1.0000   1.0000   1.0000   1.0000   1.0000   1.0000   1.0000   1.0000
     1.0000   1.0000   1.0000   1.0000   1.0000   1.0000   1.0000   1.0000
     1.0000   1.0000   1.0000   1.0000   1.0000   1.0000   1.0000   1.0000
    -0.0000  -0.0000  -0.0000  -0.0000  -0.0000  -0.0000

          k = 0.0000-0.7500 0.5000 (  1452 PWs)   bands (ev):

   -89.9937 -88.1280 -50.3963 -50.3873 -50.3812 -48.5885 -48.5828 -48.5816
    -4.4160  -4.4106   7.4614   7.4923   8.3860   8.4491   8.9143   9.0084
    12.3913  12.5356  12.6390  12.9839  13.2155  13.3901  13.7260  13.7269
    15.2546  15.4877  23.1573  23.2768  23.9860  24.0850

     occupation numbers 
     1.0000   1.0000   1.0000   1.0000   1.0000   1.0000   1.0000   1.0000
     1.0000   1.0000   1.0000   1.0000   1.0000   1.0000   1.0000   1.0000
     1.0000   1.0000   1.0000   1.0000   1.0000   1.0000   1.0000   1.0000
    -0.0000  -0.0000  -0.0000  -0.0000  -0.0000  -0.0000

          k =-0.4375-0.4375 0.5625 (  1470 PWs)   bands (ev):

   -89.9939 -88.1282 -50.3966 -50.3914 -50.3740 -48.5931 -48.5831 -48.5737
    -4.5191  -4.4669   6.2539   7.4814   8.8299   8.8640   9.8709  10.0509
    11.2998  12.4622  12.6735  12.9580  13.0467  13.4467  13.7041  13.8288
    15.8262  15.8584  20.2615  20.8394  24.4725  25.0154

     occupation numbers 
     1.0000   1.0000   1.0000   1.0000   1.0000   1.0000   1.0000   1.0000
     1.0000   1.0000   1.0000   1.0000   1.0000   1.0000   1.0000   1.0000
     1.0000   1.0000   1.0000   1.0000   1.0000   1.0000   1.0000   1.0000
    -0.0000  -0.0000  -0.0000  -0.0000  -0.0000  -0.0000

          k =-0.2500-0.5000 0.5000 (  1465 PWs)   bands (ev):

   -89.9939 -88.1282 -50.3966 -50.3896 -50.3759 -48.5911 -48.5831 -48.5757
    -4.5878  -4.4077   6.6400   7.6656   8.8241   8.9205   9.2370   9.3372
    11.9235  12.4880  12.6682  13.0323  13.0725  13.4581  13.7266  13.7960
    15.2809  15.9256  20.8002  21.6406  24.5369  24.9867

     occupation numbers 
     1.0000   1.0000   1.0000   1.0000   1.0000   1.0000   1.0000   1.0000
     1.0000   1.0000   1.0000   1.0000   1.0000   1.0000   1.0000   1.0000
     1.0000   1.0000   1.0000   1.0000   1.0000   1.0000   1.0000   1.0000
    -0.0000  -0.0000  -0.0000  -0.0000  -0.0000  -0.0000

          k =-0.3125-0.3125 0.4375 (  1474 PWs)   bands (ev):

   -89.9941 -88.1285 -50.3971 -50.3880 -50.3732 -48.5893 -48.5836 -48.5727
    -4.8264  -4.4144   6.9831   7.6495   8.7123   9.1116   9.1187   9.7063
    11.8016  12.5070  12.6717  12.9921  13.2393  13.3958  13.7543  13.7826
    15.4253  15.6960  19.9425  21.7074  24.9021  25.0839

     occupation numbers 
     1.0000   1.0000   1.0000   1.0000   1.0000   1.0000   1.0000   1.0000
     1.0000   1.0000   1.0000   1.0000   1.0000   1.0000   1.0000   1.0000
     1.0000   1.0000   1.0000   1.0000   1.0000   1.0000   1.0000   1.0000
    -0.0000  -0.0000  -0.0000  -0.0000  -0.0000  -0.0000

          k = 0.1250 0.1250 0.1250 (  1472 PWs)   bands (ev):

   -89.9957 -88.1302 -50.3998 -50.3681 -50.3681 -48.5867 -48.5671 -48.5671
    -5.7620  -4.7651   6.7593   9.0234   9.0234  10.1629  10.6857  10.6857
    11.9781  11.9781  12.3032  13.0781  13.0781  13.3088  13.3088  13.4339
    15.6186  15.6186  17.0337  19.8300  24.9165  29.1301

     occupation numbers 
     1.0000   1.0000   1.0000   1.0000   1.0000   1.0000   1.0000   1.0000
     1.0000   1.0000   1.0000   1.0000   1.0000   1.0000   1.0000   1.0000
     1.0000   1.0000   1.0000   1.0000   1.0000   1.0000   1.0000   1.0000
    -0.0000  -0.0000  -0.0000  -0.0000  -0.0000  -0.0000

          k = 0.3125 0.0625 0.0625 (  1458 PWs)   bands (ev):

   -89.9955 -88.1299 -50.3994 -50.3715 -50.3690 -48.5862 -48.5709 -48.5681
    -5.5608  -4.7744   7.0537   8.8997   9.0050   9.3022  10.4988  10.6008
    11.8465  12.1821  12.5710  12.8331  12.8847  13.3181  13.4419  13.6499
    14.9372  15.7796  18.1908  20.4571  25.0763  27.7091

     occupation numbers 
     1.0000   1.0000   1.0000   1.0000   1.0000   1.0000   1.0000   1.0000
     1.0000   1.0000   1.0000   1.0000   1.0000   1.0000   1.0000   1.0000
     1.0000   1.0000   1.0000   1.0000   1.0000   1.0000   1.0000   1.0000
    -0.0000  -0.0000  -0.0000  -0.0000  -0.0000  -0.0000

          k =-1.0000 0.5000 0.5000 (  1471 PWs)   bands (ev):

   -89.9948 -88.1292 -50.3982 -50.3798 -50.3711 -48.5849 -48.5801 -48.5704
    -5.1583  -4.6538   7.2012   7.9675   8.8980   8.9697  10.3408  10.3517
    11.5623  12.4888  12.5749  12.5979  12.8802  13.4163  13.5664  13.7532
    14.6862  15.8177  19.9599  21.5162  25.4477  25.5355

     occupation numbers 
     1.0000   1.0000   1.0000   1.0000   1.0000   1.0000   1.0000   1.0000
     1.0000   1.0000   1.0000   1.0000   1.0000   1.0000   1.0000   1.0000
     1.0000   1.0000   1.0000   1.0000   1.0000   1.0000   1.0000   1.0000
    -0.0000  -0.0000  -0.0000  -0.0000  -0.0000  -0.0000

          k =-0.8125 0.4375 0.4375 (  1455 PWs)   bands (ev):

   -89.9941 -88.1285 -50.3971 -50.3880 -50.3732 -48.5893 -48.5837 -48.5727
    -4.7398  -4.4999   6.8074   7.4364   8.7142   8.9123   9.9597  10.0984
    11.4422  12.4486  12.6697  12.9038  12.9962  13.4147  13.6819  13.8540
    15.0872  15.7597  21.0002  21.7066  24.2304  25.4610

     occupation numbers 
     1.0000   1.0000   1.0000   1.0000   1.0000   1.0000   1.0000   1.0000
     1.0000   1.0000   1.0000   1.0000   1.0000   1.0000   1.0000   1.0000
     1.0000   1.0000   1.0000   1.0000   1.0000   1.0000   1.0000   1.0000
    -0.0000  -0.0000  -0.0000  -0.0000  -0.0000  -0.0000

          k =-0.6250 0.3750 0.3750 (  1463 PWs)   bands (ev):

   -89.9939 -88.1282 -50.3966 -50.3914 -50.3740 -48.5931 -48.5831 -48.5737
    -4.5162  -4.4749   6.4916   7.4964   8.7473   8.9364   9.3869   9.8842
    11.5736  12.4954  12.7017  13.0104  13.1801  13.4203  13.6990  13.8367
    15.6146  15.6239  20.9010  21.2412  24.3283  24.9527

     occupation numbers 
     1.0000   1.0000   1.0000   1.0000   1.0000   1.0000   1.0000   1.0000
     1.0000   1.0000   1.0000   1.0000   1.0000   1.0000   1.0000   1.0000
     1.0000   1.0000   1.0000   1.0000   1.0000   1.0000   1.0000   1.0000
    -0.0000  -0.0000  -0.0000  -0.0000  -0.0000  -0.0000

          k = 0.2500 0.2500 0.0000 (  1473 PWs)   bands (ev):

   -89.9955 -88.1299 -50.3993 -50.3715 -50.3690 -48.5862 -48.5709 -48.5680
    -5.4920  -4.8568   7.2448   8.8628   9.2090   9.2839  10.0330  10.3269
    12.0158  12.0995  12.6032  12.8838  13.1082  13.1521  13.5115  13.8727
    15.2717  15.3405  18.2791  20.3257  25.2964  28.0617

     occupation numbers 
     1.0000   1.0000   1.0000   1.0000   1.0000   1.0000   1.0000   1.0000
     1.0000   1.0000   1.0000   1.0000   1.0000   1.0000   1.0000   1.0000
     1.0000   1.0000   1.0000   1.0000   1.0000   1.0000   1.0000   1.0000
    -0.0000  -0.0000  -0.0000  -0.0000  -0.0000  -0.0000

          k =-1.0625 0.6875 0.4375 (  1461 PWs)   bands (ev):

   -89.9950 -88.1294 -50.3985 -50.3770 -50.3708 -48.5853 -48.5770 -48.5701
    -5.1915  -4.7900   7.3815   8.0733   9.1175   9.3481   9.7972  10.0441
    11.9811  12.1864  12.5463  12.8537  13.0355  13.3786  13.5767  13.7583
    14.9733  15.4618  19.6186  21.0091  25.6604  26.4835

     occupation numbers 
     1.0000   1.0000   1.0000   1.0000   1.0000   1.0000   1.0000   1.0000
     1.0000   1.0000   1.0000   1.0000   1.0000   1.0000   1.0000   1.0000
     1.0000   1.0000   1.0000   1.0000   1.0000   1.0000   1.0000   1.0000
    -0.0000  -0.0000  -0.0000  -0.0000  -0.0000  -0.0000

          k =-0.8750 0.6250 0.3750 (  1460 PWs)   bands (ev):

   -89.9943 -88.1287 -50.3974 -50.3844 -50.3737 -48.5853 -48.5840 -48.5734
    -4.8096  -4.6079   7.1335   7.4813   8.8523   9.1162   9.5779   9.9492
    11.7641  12.3433  12.6186  12.8439  13.1514  13.5144  13.6136  13.8483
    15.0091  15.5278  20.9627  21.6313  24.7270  25.6953

     occupation numbers 
     1.0000   1.0000   1.0000   1.0000   1.0000   1.0000   1.0000   1.0000
     1.0000   1.0000   1.0000   1.0000   1.0000   1.0000   1.0000   1.0000
     1.0000   1.0000   1.0000   1.0000   1.0000   1.0000   1.0000   1.0000
    -0.0000  -0.0000  -0.0000  -0.0000  -0.0000  -0.0000

          k =-0.6875 0.5625 0.3125 (  1470 PWs)   bands (ev):

   -89.9939 -88.1282 -50.3966 -50.3896 -50.3759 -48.5911 -48.5831 -48.5757
    -4.5195  -4.4735   6.6357   7.4514   8.6546   8.9670   9.3865   9.7151
    11.7482  12.4864  12.6181  13.0402  13.1265  13.5462  13.7182  13.7998
    15.3754  15.6202  21.4043  21.4827  24.1277  24.9410

     occupation numbers 
     1.0000   1.0000   1.0000   1.0000   1.0000   1.0000   1.0000   1.0000
     1.0000   1.0000   1.0000   1.0000   1.0000   1.0000   1.0000   1.0000
     1.0000   1.0000   1.0000   1.0000   1.0000   1.0000   1.0000   1.0000
    -0.0000  -0.0000  -0.0000  -0.0000  -0.0000  -0.0000

          k =-0.6250-0.6250 0.8750 (  1463 PWs)   bands (ev):

   -89.9948 -88.1292 -50.3982 -50.3798 -50.3711 -48.5849 -48.5801 -48.5704
    -5.0144  -4.8097   7.4437   7.6534   9.1760   9.4020   9.6858   9.9546
    11.7157  12.3624  12.4995  12.9206  13.1161  13.3723  13.7035  13.7046
    14.9712  15.6272  19.8686  20.9639  25.6878  25.9506

     occupation numbers 
     1.0000   1.0000   1.0000   1.0000   1.0000   1.0000   1.0000   1.0000
     1.0000   1.0000   1.0000   1.0000   1.0000   1.0000   1.0000   1.0000
     1.0000   1.0000   1.0000   1.0000   1.0000   1.0000   1.0000   1.0000
    -0.0000  -0.0000  -0.0000  -0.0000  -0.0000  -0.0000

          k =-0.4375-0.6875 0.8125 (  1461 PWs)   bands (ev):

   -89.9943 -88.1287 -50.3974 -50.3844 -50.3737 -48.5853 -48.5840 -48.5734
    -4.7352  -4.6838   7.1305   7.4151   8.9579   9.2420   9.5171   9.8067
    11.8122  12.2654  12.6390  12.8266  13.2066  13.5522  13.6426  13.8392
    15.1350  15.4774  20.8959  21.2883  24.9982  25.2824

     occupation numbers 
     1.0000   1.0000   1.0000   1.0000   1.0000   1.0000   1.0000   1.0000
     1.0000   1.0000   1.0000   1.0000   1.0000   1.0000   1.0000   1.0000
     1.0000   1.0000   1.0000   1.0000   1.0000   1.0000   1.0000   1.0000
    -0.0000  -0.0000  -0.0000  -0.0000  -0.0000  -0.0000

          k =-0.2500-0.7500 0.7500 (  1448 PWs)   bands (ev):

   -89.9939 -88.1282 -50.3966 -50.3871 -50.3784 -48.5882 -48.5831 -48.5785
    -4.5023  -4.4961   7.2068   7.2251   8.5810   8.6996   9.2646   9.5051
    12.1310  12.2440  12.6168  13.0599  13.3462  13.7160  13.7316  13.7730
    15.2715  15.2781  21.9354  22.0436  24.2031  24.3142

     occupation numbers 
     1.0000   1.0000   1.0000   1.0000   1.0000   1.0000   1.0000   1.0000
     1.0000   1.0000   1.0000   1.0000   1.0000   1.0000   1.0000   1.0000
     1.0000   1.0000   1.0000   1.0000   1.0000   1.0000   1.0000   1.0000
    -0.0000  -0.0000  -0.0000  -0.0000  -0.0000  -0.0000

          k =-0.5000-0.5000 0.7500 (  1468 PWs)   bands (ev):

   -89.9941 -88.1285 -50.3971 -50.3880 -50.3732 -48.5893 -48.5836 -48.5727
    -4.6519  -4.5877   6.6410   7.4052   8.9028   8.9194  10.1435  10.1485
    11.2583  12.4509  12.6024  12.7939  13.0767  13.4822  13.6791  13.8131
    15.2834  15.8641  20.8009  20.9557  24.5334  25.2077

     occupation numbers 
     1.0000   1.0000   1.0000   1.0000   1.0000   1.0000   1.0000   1.0000
     1.0000   1.0000   1.0000   1.0000   1.0000   1.0000   1.0000   1.0000
     1.0000   1.0000   1.0000   1.0000   1.0000   1.0000   1.0000   1.0000
    -0.0000  -0.0000  -0.0000  -0.0000  -0.0000  -0.0000

          k = 0.1875 0.1875 0.1875 (  1472 PWs)   bands (ev):

   -89.9957 -88.1302 -50.3998 -50.3681 -50.3681 -48.5868 -48.5671 -48.5671
    -5.5544  -5.0177   7.4271   9.2076   9.2296   9.2296  10.2554  10.2554
    12.0178  12.0178  12.3832  13.1529  13.1529  13.3219  13.6105  13.6105
    15.3994  15.3994  17.9049  19.4259  25.5864  27.9756

     occupation numbers 
     1.0000   1.0000   1.0000   1.0000   1.0000   1.0000   1.0000   1.0000
     1.0000   1.0000   1.0000   1.0000   1.0000   1.0000   1.0000   1.0000
     1.0000   1.0000   1.0000   1.0000   1.0000   1.0000   1.0000   1.0000
    -0.0000  -0.0000  -0.0000  -0.0000  -0.0000  -0.0000

          k =-1.1250 0.6250 0.6250 (  1461 PWs)   bands (ev):

   -89.9955 -88.1299 -50.3993 -50.3715 -50.3690 -48.5862 -48.5709 -48.5681
    -5.3518  -5.0145   7.6172   8.4362   9.1764   9.5016   9.9781  10.2493
    11.8962  12.1553  12.6084  12.9237  13.0120  13.3703  13.4913  13.6654
    14.9217  15.6129  18.9719  19.8691  25.9466  27.5555

     occupation numbers 
     1.0000   1.0000   1.0000   1.0000   1.0000   1.0000   1.0000   1.0000
     1.0000   1.0000   1.0000   1.0000   1.0000   1.0000   1.0000   1.0000
     1.0000   1.0000   1.0000   1.0000   1.0000   1.0000   1.0000   1.0000
    -0.0000  -0.0000  -0.0000  -0.0000  -0.0000  -0.0000

          k =-0.9375 0.5625 0.5625 (  1464 PWs)   bands (ev):

   -89.9948 -88.1292 -50.3982 -50.3798 -50.3711 -48.5850 -48.5801 -48.5704
    -4.9931  -4.8311   7.3501   7.7180   9.0551   9.2239  10.0787  10.1843
    11.5821  12.4099  12.5487  12.7131  12.9705  13.4134  13.6137  13.7261
    14.7738  15.7836  20.4681  20.6831  25.6879  26.6296

     occupation numbers 
     1.0000   1.0000   1.0000   1.0000   1.0000   1.0000   1.0000   1.0000
     1.0000   1.0000   1.0000   1.0000   1.0000   1.0000   1.0000   1.0000
     1.0000   1.0000   1.0000   1.0000   1.0000   1.0000   1.0000   1.0000
    -0.0000  -0.0000  -0.0000  -0.0000  -0.0000  -0.0000

          k =-0.6875-0.6875 1.0625 (  1467 PWs)   bands (ev):

   -89.9955 -88.1299 -50.3993 -50.3715 -50.3690 -48.5862 -48.5709 -48.5681
    -5.2662  -5.1057   7.8184   8.2830   9.3393   9.4627   9.9326   9.9782
    11.9591  12.1291  12.6384  12.9184  13.0774  13.2725  13.5432  13.7580
    15.1168  15.3944  19.1034  19.7173  26.3032  27.0393

     occupation numbers 
     1.0000   1.0000   1.0000   1.0000   1.0000   1.0000   1.0000   1.0000
     1.0000   1.0000   1.0000   1.0000   1.0000   1.0000   1.0000   1.0000
     1.0000   1.0000   1.0000   1.0000   1.0000   1.0000   1.0000   1.0000
    -0.0000  -0.0000  -0.0000  -0.0000  -0.0000  -0.0000

          k =-0.5000-0.7500 1.0000 (  1466 PWs)   bands (ev):

   -89.9950 -88.1294 -50.3985 -50.3770 -50.3708 -48.5853 -48.5770 -48.5701
    -4.9953  -4.9951   7.6044   7.8066   9.2582   9.6526   9.6815   9.7523
    12.0289  12.1377  12.5754  12.7972  13.0121  13.4058  13.5896  13.7134
    15.0460  15.4010  20.3019  20.3345  26.6499  26.6971

     occupation numbers 
     1.0000   1.0000   1.0000   1.0000   1.0000   1.0000   1.0000   1.0000
     1.0000   1.0000   1.0000   1.0000   1.0000   1.0000   1.0000   1.0000
     1.0000   1.0000   1.0000   1.0000   1.0000   1.0000   1.0000   1.0000
    -0.0000  -0.0000  -0.0000  -0.0000  -0.0000  -0.0000

          k =-0.2500-0.2500-0.2500 (  1466 PWs)   bands (ev):

   -89.9957 -88.1302 -50.3998 -50.3681 -50.3681 -48.5868 -48.5671 -48.5671
    -5.2979  -5.2926   8.2407   8.2934   9.3697   9.3697  10.0377  10.0377
    12.0352  12.0352  12.4126  13.1400  13.1400  13.2732  13.7878  13.7878
    15.2841  15.2841  18.6865  18.8134  26.5696  26.7001

     occupation numbers 
     1.0000   1.0000   1.0000   1.0000   1.0000   1.0000   1.0000   1.0000
     1.0000   1.0000   1.0000   1.0000   1.0000   1.0000   1.0000   1.0000
     1.0000   1.0000   1.0000   1.0000   1.0000   1.0000   1.0000   1.0000
    -0.0000  -0.0000  -0.0000  -0.0000  -0.0000  -0.0000

 ------ SPIN DOWN ----------


          k = 0.0000 0.0000 0.0000 (  1443 PWs)   bands (ev):

   -89.9957 -88.1302 -50.3999 -50.3681 -50.3681 -48.5866 -48.5671 -48.5671
    -5.9409  -4.5205   6.1753   8.8341   8.8341  11.4355  11.4355  11.4427
    11.9258  11.9258  12.0188  12.3696  12.3696  13.3101  13.3101  13.5827
    15.8573  15.8573  16.0250  20.0018  24.5266  28.4938

     occupation numbers 
     1.0000   1.0000   1.0000   1.0000   1.0000   1.0000   1.0000   1.0000
     1.0000   1.0000   1.0000   1.0000   1.0000   1.0000   1.0000   1.0000
     1.0000   1.0000   1.0000   1.0000   1.0000   1.0000   1.0000   1.0000
    -0.0000  -0.0000  -0.0000  -0.0000  -0.0000  -0.0000

          k = 0.1875-0.0625-0.0625 (  1463 PWs)   bands (ev):

   -89.9955 -88.1299 -50.3994 -50.3715 -50.3690 -48.5861 -48.5709 -48.5681
    -5.7772  -4.4949   6.4494   8.7345   8.8786  10.0844  10.8352  10.8672
    11.9570  12.2770  12.3070  12.5458  12.9544  13.3985  13.4030  13.5775
    15.3627  15.7539  17.0256  20.9211  24.3083  27.3079

     occupation numbers 
     1.0000   1.0000   1.0000   1.0000   1.0000   1.0000   1.0000   1.0000
     1.0000   1.0000   1.0000   1.0000   1.0000   1.0000   1.0000   1.0000
     1.0000   1.0000   1.0000   1.0000   1.0000   1.0000   1.0000   1.0000
    -0.0000  -0.0000  -0.0000  -0.0000  -0.0000  -0.0000

          k = 0.3750-0.1250-0.1250 (  1452 PWs)   bands (ev):

   -89.9948 -88.1292 -50.3982 -50.3798 -50.3711 -48.5849 -48.5801 -48.5704
    -5.3517  -4.4307   7.1273   8.3587   8.5079   8.9771   9.9836  10.2111
    11.9013  12.4298  12.5669  12.9104  13.0695  13.3662  13.6601  13.6916
    15.0268  15.5300  18.9721  22.7045  23.7923  25.5775

     occupation numbers 
     1.0000   1.0000   1.0000   1.0000   1.0000   1.0000   1.0000   1.0000
     1.0000   1.0000   1.0000   1.0000   1.0000   1.0000   1.0000   1.0000
     1.0000   1.0000   1.0000   1.0000   1.0000   1.0000   1.0000   1.0000
    -0.0000  -0.0000  -0.0000  -0.0000  -0.0000  -0.0000

          k = 0.5625-0.1875-0.1875 (  1458 PWs)   bands (ev):

[...]
    -0.0000  -0.0000  -0.0000  -0.0000  -0.0000  -0.0000

          k =-0.8125 0.4375 0.4375 (  1455 PWs)   bands (ev):

   -89.9941 -88.1285 -50.3971 -50.3880 -50.3732 -48.5893 -48.5837 -48.5727
    -4.7398  -4.4999   6.8074   7.4364   8.7142   8.9123   9.9597  10.0984
    11.4422  12.4486  12.6697  12.9038  12.9962  13.4147  13.6819  13.8540
    15.0872  15.7597  21.0002  21.7066  24.2304  25.4610

     occupation numbers 
     1.0000   1.0000   1.0000   1.0000   1.0000   1.0000   1.0000   1.0000
     1.0000   1.0000   1.0000   1.0000   1.0000   1.0000   1.0000   1.0000
     1.0000   1.0000   1.0000   1.0000   1.0000   1.0000   1.0000   1.0000
    -0.0000  -0.0000  -0.0000  -0.0000  -0.0000  -0.0000

          k =-0.6250 0.3750 0.3750 (  1463 PWs)   bands (ev):

   -89.9939 -88.1282 -50.3966 -50.3914 -50.3740 -48.5931 -48.5831 -48.5737
    -4.5162  -4.4749   6.4916   7.4964   8.7473   8.9364   9.3869   9.8842
    11.5736  12.4953  12.7017  13.0104  13.1801  13.4203  13.6990  13.8367
    15.6146  15.6239  20.9010  21.2412  24.3283  24.9528

     occupation numbers 
     1.0000   1.0000   1.0000   1.0000   1.0000   1.0000   1.0000   1.0000
     1.0000   1.0000   1.0000   1.0000   1.0000   1.0000   1.0000   1.0000
     1.0000   1.0000   1.0000   1.0000   1.0000   1.0000   1.0000   1.0000
    -0.0000  -0.0000  -0.0000  -0.0000  -0.0000  -0.0000

          k = 0.2500 0.2500 0.0000 (  1473 PWs)   bands (ev):

   -89.9955 -88.1299 -50.3993 -50.3715 -50.3690 -48.5862 -48.5709 -48.5681
    -5.4920  -4.8568   7.2448   8.8628   9.2090   9.2839  10.0330  10.3269
    12.0158  12.0995  12.6032  12.8838  13.1082  13.1521  13.5115  13.8727
    15.2717  15.3405  18.2791  20.3257  25.2964  28.0617

     occupation numbers 
     1.0000   1.0000   1.0000   1.0000   1.0000   1.0000   1.0000   1.0000
     1.0000   1.0000   1.0000   1.0000   1.0000   1.0000   1.0000   1.0000
     1.0000   1.0000   1.0000   1.0000   1.0000   1.0000   1.0000   1.0000
    -0.0000  -0.0000  -0.0000  -0.0000  -0.0000  -0.0000

          k =-1.0625 0.6875 0.4375 (  1461 PWs)   bands (ev):

   -89.9950 -88.1294 -50.3985 -50.3770 -50.3708 -48.5853 -48.5770 -48.5701
    -5.1915  -4.7900   7.3815   8.0733   9.1175   9.3481   9.7972  10.0441
    11.9811  12.1864  12.5463  12.8537  13.0355  13.3786  13.5767  13.7583
    14.9733  15.4618  19.6186  21.0091  25.6604  26.4835

     occupation numbers 
     1.0000   1.0000   1.0000   1.0000   1.0000   1.0000   1.0000   1.0000
     1.0000   1.0000   1.0000   1.0000   1.0000   1.0000   1.0000   1.0000
     1.0000   1.0000   1.0000   1.0000   1.0000   1.0000   1.0000   1.0000
    -0.0000  -0.0000  -0.0000  -0.0000  -0.0000  -0.0000

          k =-0.8750 0.6250 0.3750 (  1460 PWs)   bands (ev):

   -89.9943 -88.1287 -50.3974 -50.3844 -50.3737 -48.5853 -48.5840 -48.5734
    -4.8096  -4.6079   7.1335   7.4813   8.8523   9.1162   9.5779   9.9492
    11.7641  12.3433  12.6186  12.8439  13.1514  13.5144  13.6136  13.8483
    15.0091  15.5278  20.9627  21.6313  24.7270  25.6954

     occupation numbers 
     1.0000   1.0000   1.0000   1.0000   1.0000   1.0000   1.0000   1.0000
     1.0000   1.0000   1.0000   1.0000   1.0000   1.0000   1.0000   1.0000
     1.0000   1.0000   1.0000   1.0000   1.0000   1.0000   1.0000   1.0000
    -0.0000  -0.0000  -0.0000  -0.0000  -0.0000  -0.0000

          k =-0.6875 0.5625 0.3125 (  1470 PWs)   bands (ev):

   -89.9939 -88.1282 -50.3966 -50.3896 -50.3759 -48.5911 -48.5831 -48.5757
    -4.5195  -4.4735   6.6357   7.4514   8.6546   8.9670   9.3865   9.7151
    11.7482  12.4864  12.6181  13.0402  13.1265  13.5462  13.7182  13.7998
    15.3754  15.6202  21.4043  21.4827  24.1277  24.9410

     occupation numbers 
     1.0000   1.0000   1.0000   1.0000   1.0000   1.0000   1.0000   1.0000
     1.0000   1.0000   1.0000   1.0000   1.0000   1.0000   1.0000   1.0000
     1.0000   1.0000   1.0000   1.0000   1.0000   1.0000   1.0000   1.0000
    -0.0000  -0.0000  -0.0000  -0.0000  -0.0000  -0.0000

          k =-0.6250-0.6250 0.8750 (  1463 PWs)   bands (ev):

   -89.9948 -88.1292 -50.3982 -50.3798 -50.3711 -48.5849 -48.5801 -48.5704
    -5.0144  -4.8097   7.4437   7.6534   9.1760   9.4020   9.6858   9.9546
    11.7157  12.3624  12.4995  12.9206  13.1161  13.3723  13.7035  13.7046
    14.9712  15.6272  19.8686  20.9639  25.6878  25.9507

     occupation numbers 
     1.0000   1.0000   1.0000   1.0000   1.0000   1.0000   1.0000   1.0000
     1.0000   1.0000   1.0000   1.0000   1.0000   1.0000   1.0000   1.0000
     1.0000   1.0000   1.0000   1.0000   1.0000   1.0000   1.0000   1.0000
    -0.0000  -0.0000  -0.0000  -0.0000  -0.0000  -0.0000

          k =-0.4375-0.6875 0.8125 (  1461 PWs)   bands (ev):

   -89.9943 -88.1287 -50.3974 -50.3844 -50.3738 -48.5853 -48.5840 -48.5734
    -4.7352  -4.6838   7.1305   7.4151   8.9579   9.2420   9.5171   9.8067
    11.8122  12.2654  12.6390  12.8266  13.2066  13.5522  13.6426  13.8392
    15.1350  15.4774  20.8960  21.2883  24.9982  25.2824

     occupation numbers 
     1.0000   1.0000   1.0000   1.0000   1.0000   1.0000   1.0000   1.0000
     1.0000   1.0000   1.0000   1.0000   1.0000   1.0000   1.0000   1.0000
     1.0000   1.0000   1.0000   1.0000   1.0000   1.0000   1.0000   1.0000
    -0.0000  -0.0000  -0.0000  -0.0000  -0.0000  -0.0000

          k =-0.2500-0.7500 0.7500 (  1448 PWs)   bands (ev):

   -89.9939 -88.1282 -50.3966 -50.3871 -50.3784 -48.5882 -48.5831 -48.5785
    -4.5023  -4.4961   7.2068   7.2251   8.5810   8.6996   9.2646   9.5051
    12.1310  12.2440  12.6168  13.0599  13.3462  13.7160  13.7316  13.7730
    15.2715  15.2781  21.9355  22.0436  24.2031  24.3142

     occupation numbers 
     1.0000   1.0000   1.0000   1.0000   1.0000   1.0000   1.0000   1.0000
     1.0000   1.0000   1.0000   1.0000   1.0000   1.0000   1.0000   1.0000
     1.0000   1.0000   1.0000   1.0000   1.0000   1.0000   1.0000   1.0000
    -0.0000  -0.0000  -0.0000  -0.0000  -0.0000  -0.0000

          k =-0.5000-0.5000 0.7500 (  1468 PWs)   bands (ev):

   -89.9941 -88.1285 -50.3971 -50.3880 -50.3732 -48.5893 -48.5836 -48.5727
    -4.6519  -4.5877   6.6410   7.4052   8.9028   8.9194  10.1435  10.1485
    11.2583  12.4509  12.6024  12.7939  13.0767  13.4822  13.6791  13.8131
    15.2834  15.8641  20.8009  20.9556  24.5334  25.2078

     occupation numbers 
     1.0000   1.0000   1.0000   1.0000   1.0000   1.0000   1.0000   1.0000
     1.0000   1.0000   1.0000   1.0000   1.0000   1.0000   1.0000   1.0000
     1.0000   1.0000   1.0000   1.0000   1.0000   1.0000   1.0000   1.0000
    -0.0000  -0.0000  -0.0000  -0.0000  -0.0000  -0.0000

          k = 0.1875 0.1875 0.1875 (  1472 PWs)   bands (ev):

   -89.9957 -88.1302 -50.3998 -50.3681 -50.3681 -48.5868 -48.5671 -48.5671
    -5.5544  -5.0177   7.4272   9.2076   9.2296   9.2296  10.2554  10.2554
    12.0178  12.0178  12.3832  13.1529  13.1529  13.3218  13.6105  13.6105
    15.3994  15.3994  17.9049  19.4259  25.5864  27.9756

     occupation numbers 
     1.0000   1.0000   1.0000   1.0000   1.0000   1.0000   1.0000   1.0000
     1.0000   1.0000   1.0000   1.0000   1.0000   1.0000   1.0000   1.0000
     1.0000   1.0000   1.0000   1.0000   1.0000   1.0000   1.0000   1.0000
    -0.0000  -0.0000  -0.0000  -0.0000  -0.0000  -0.0000

          k =-1.1250 0.6250 0.6250 (  1461 PWs)   bands (ev):

   -89.9955 -88.1299 -50.3993 -50.3715 -50.3690 -48.5862 -48.5709 -48.5681
    -5.3518  -5.0145   7.6172   8.4362   9.1764   9.5016   9.9781  10.2493
    11.8962  12.1553  12.6084  12.9237  13.0120  13.3703  13.4913  13.6654
    14.9217  15.6129  18.9719  19.8691  25.9466  27.5555

     occupation numbers 
     1.0000   1.0000   1.0000   1.0000   1.0000   1.0000   1.0000   1.0000
     1.0000   1.0000   1.0000   1.0000   1.0000   1.0000   1.0000   1.0000
     1.0000   1.0000   1.0000   1.0000   1.0000   1.0000   1.0000   1.0000
    -0.0000  -0.0000  -0.0000  -0.0000  -0.0000  -0.0000

          k =-0.9375 0.5625 0.5625 (  1464 PWs)   bands (ev):

   -89.9948 -88.1292 -50.3982 -50.3798 -50.3711 -48.5850 -48.5801 -48.5704
    -4.9931  -4.8311   7.3501   7.7180   9.0551   9.2239  10.0787  10.1843
    11.5821  12.4099  12.5487  12.7131  12.9705  13.4134  13.6137  13.7261
    14.7738  15.7836  20.4681  20.6831  25.6879  26.6295

     occupation numbers 
     1.0000   1.0000   1.0000   1.0000   1.0000   1.0000   1.0000   1.0000
     1.0000   1.0000   1.0000   1.0000   1.0000   1.0000   1.0000   1.0000
     1.0000   1.0000   1.0000   1.0000   1.0000   1.0000   1.0000   1.0000
    -0.0000  -0.0000  -0.0000  -0.0000  -0.0000  -0.0000

          k =-0.6875-0.6875 1.0625 (  1467 PWs)   bands (ev):

   -89.9955 -88.1299 -50.3993 -50.3715 -50.3690 -48.5862 -48.5709 -48.5681
    -5.2662  -5.1057   7.8184   8.2830   9.3393   9.4627   9.9326   9.9782
    11.9591  12.1291  12.6384  12.9184  13.0774  13.2725  13.5432  13.7580
    15.1167  15.3944  19.1034  19.7173  26.3032  27.0393

     occupation numbers 
     1.0000   1.0000   1.0000   1.0000   1.0000   1.0000   1.0000   1.0000
     1.0000   1.0000   1.0000   1.0000   1.0000   1.0000   1.0000   1.0000
     1.0000   1.0000   1.0000   1.0000   1.0000   1.0000   1.0000   1.0000
    -0.0000  -0.0000  -0.0000  -0.0000  -0.0000  -0.0000

          k =-0.5000-0.7500 1.0000 (  1466 PWs)   bands (ev):

   -89.9950 -88.1294 -50.3985 -50.3770 -50.3708 -48.5853 -48.5770 -48.5701
    -4.9953  -4.9951   7.6044   7.8066   9.2582   9.6526   9.6815   9.7523
    12.0289  12.1377  12.5754  12.7972  13.0121  13.4058  13.5896  13.7134
    15.0460  15.4010  20.3019  20.3345  26.6499  26.6971

     occupation numbers 
     1.0000   1.0000   1.0000   1.0000   1.0000   1.0000   1.0000   1.0000
     1.0000   1.0000   1.0000   1.0000   1.0000   1.0000   1.0000   1.0000
     1.0000   1.0000   1.0000   1.0000   1.0000   1.0000   1.0000   1.0000
    -0.0000  -0.0000  -0.0000  -0.0000  -0.0000  -0.0000

          k =-0.2500-0.2500-0.2500 (  1466 PWs)   bands (ev):

   -89.9957 -88.1302 -50.3998 -50.3681 -50.3681 -48.5868 -48.5671 -48.5671
    -5.2979  -5.2926   8.2407   8.2934   9.3697   9.3697  10.0377  10.0377
    12.0352  12.0352  12.4126  13.1400  13.1400  13.2732  13.7878  13.7878
    15.2841  15.2841  18.6865  18.8134  26.5696  26.7001

     occupation numbers 
     1.0000   1.0000   1.0000   1.0000   1.0000   1.0000   1.0000   1.0000
     1.0000   1.0000   1.0000   1.0000   1.0000   1.0000   1.0000   1.0000
     1.0000   1.0000   1.0000   1.0000   1.0000   1.0000   1.0000   1.0000
    -0.0000  -0.0000  -0.0000  -0.0000  -0.0000  -0.0000

     the Fermi energy is    14.3414 ev

!    total energy              =    -751.04284182 Ry
     estimated scf accuracy    <          1.6E-12 Ry
     smearing contrib. (-TS)   =       0.00000000 Ry
     internal energy E=F+TS    =    -751.04284182 Ry

     The total energy is F=E-TS. E is the sum of the following terms:
     one-electron contribution =    -432.50027209 Ry
     hartree contribution      =     245.92767324 Ry
     xc contribution           =     -85.81672760 Ry
     ewald contribution        =    -478.65351537 Ry

     total magnetization       =     0.00 Bohr mag/cell
     absolute magnetization    =     2.96 Bohr mag/cell

     convergence has been achieved in  17 iterations

     Forces acting on atoms (cartesian axes, Ry/au):

     atom    1 type  1   force =     0.00000015    0.00000015    0.00000015
     atom    2 type  1   force =    -0.00000015   -0.00000015   -0.00000015
     atom    3 type  2   force =    -0.00000000    0.00000000    0.00000000
     atom    4 type  3   force =     0.00000000    0.00000000   -0.00000000
     The non-local contrib.  to forces
     atom    1 type  1   force =     0.00000028    0.00000028    0.00000028
     atom    2 type  1   force =    -0.00000028   -0.00000028   -0.00000028
     atom    3 type  2   force =     0.00000000   -0.00000000    0.00000000
     atom    4 type  3   force =    -0.00000000    0.00000000   -0.00000000
     The ionic contribution  to forces
     atom    1 type  1   force =    -0.00000000   -0.00000000   -0.00000000
     atom    2 type  1   force =     0.00000000    0.00000000    0.00000000
     atom    3 type  2   force =    -0.00000000   -0.00000000   -0.00000000
     atom    4 type  3   force =     0.00000000    0.00000000    0.00000000
     The local contribution  to forces
     atom    1 type  1   force =    -0.00000041   -0.00000041   -0.00000041
     atom    2 type  1   force =     0.00000041    0.00000041    0.00000041
     atom    3 type  2   force =     0.00000000    0.00000000    0.00000000
     atom    4 type  3   force =     0.00000000    0.00000000    0.00000000
     The core correction contribution to forces
     atom    1 type  1   force =    -0.00000032   -0.00000032   -0.00000032
     atom    2 type  1   force =     0.00000032    0.00000032    0.00000032
     atom    3 type  2   force =     0.00000000    0.00000000    0.00000000
     atom    4 type  3   force =     0.00000000    0.00000000    0.00000000
     The Hubbard contrib.    to forces
     atom    1 type  1   force =     0.00000000    0.00000000    0.00000000
     atom    2 type  1   force =     0.00000000    0.00000000    0.00000000
     atom    3 type  2   force =     0.00000000    0.00000000    0.00000000
     atom    4 type  3   force =     0.00000000    0.00000000    0.00000000
     The SCF correction term to forces
     atom    1 type  1   force =     0.00000061    0.00000061    0.00000061
     atom    2 type  1   force =    -0.00000061   -0.00000061   -0.00000061
     atom    3 type  2   force =     0.00000000   -0.00000000    0.00000000
     atom    4 type  3   force =     0.00000000    0.00000000    0.00000000

     Total force =     0.000000     Total SCF correction =     0.000001
     SCF correction compared to forces is large: reduce conv_thr to get better values


     Computing stress (Cartesian axis) and pressure

          total   stress  (Ry/bohr**3)                   (kbar)     P=       29.47
   0.00020033  -0.00002279  -0.00002279           29.47       -3.35       -3.35
  -0.00002279   0.00020033  -0.00002279           -3.35       29.47       -3.35
  -0.00002279  -0.00002279   0.00020033           -3.35       -3.35       29.47

     kinetic stress (kbar)  48903.21     -2.90     -2.90
                               -2.90  48903.21     -2.90
                               -2.90     -2.90  48903.21

     local   stress (kbar)  -4851.61     11.48     11.48
                               11.48  -4851.61     11.48
                               11.48     11.48  -4851.61

     nonloc. stress (kbar)  18931.23     -5.54     -5.54
                               -5.54  18931.23     -5.54
                               -5.54     -5.54  18931.23

     hartree stress (kbar)  49287.76     -6.31     -6.31
                               -6.31  49287.76     -6.31
                               -6.31     -6.31  49287.76

     exc-cor stress (kbar) -13817.44     -0.12     -0.12
                               -0.12 -13817.44     -0.12
                               -0.12     -0.12 -13817.44

     corecor stress (kbar)  -2494.03      0.03      0.03
                                0.03  -2494.03      0.03
                                0.03      0.03  -2494.03

     ewald   stress (kbar) -95929.66     -0.00      0.00
                               -0.00 -95929.66     -0.00
                                0.00     -0.00 -95929.66

     hubbard stress (kbar)      0.00      0.00      0.00
                                0.00      0.00      0.00
                                0.00      0.00      0.00

     DFT-D   stress (kbar)      0.00      0.00      0.00
                                0.00      0.00      0.00
                                0.00      0.00      0.00

     XDM     stress (kbar)      0.00      0.00      0.00
                                0.00      0.00      0.00
                                0.00      0.00      0.00

     dft-nl  stress (kbar)      0.00      0.00      0.00
                                0.00      0.00      0.00
                                0.00      0.00      0.00

     TS-vdW  stress (kbar)      0.00      0.00      0.00
                                0.00      0.00      0.00
                                0.00      0.00      0.00


                                0.00      0.00      0.00
                                0.00      0.00      0.00


                                0.00      0.00      0.00


     Writing all to output data dir ./nio.save/

     init_run     :     13.40s CPU     13.69s WALL (       1 calls)
     electrons    :    588.60s CPU    595.86s WALL (       1 calls)
     forces       :      3.29s CPU      3.41s WALL (       1 calls)
     stress       :      6.69s CPU      7.02s WALL (       1 calls)

     Called by init_run:
     wfcinit      :     11.48s CPU     11.62s WALL (       1 calls)
     wfcinit:atom :      0.08s CPU      0.08s WALL (     130 calls)
     wfcinit:wfcr :     11.03s CPU     11.16s WALL (     130 calls)
     potinit      :      0.65s CPU      0.67s WALL (       1 calls)
     hinit0       :      0.87s CPU      0.89s WALL (       1 calls)

     Called by electrons:
     c_bands      :    476.37s CPU    478.71s WALL (      17 calls)
     sum_band     :     95.31s CPU     97.77s WALL (      17 calls)
     v_of_rho     :      9.84s CPU     10.37s WALL (      18 calls)
     v_h          :      0.21s CPU      0.24s WALL (      18 calls)
     v_xc         :     10.68s CPU     11.20s WALL (      20 calls)
     newd         :      6.48s CPU      8.46s WALL (      18 calls)
     mix_rho      :      0.88s CPU      0.89s WALL (      17 calls)

     Called by c_bands:
     init_us_2    :      3.11s CPU      3.14s WALL (    4810 calls)
     init_us_2:cp :      3.10s CPU      3.13s WALL (    4810 calls)
     cegterg      :    469.65s CPU    471.92s WALL (    2210 calls)

     Called by sum_band:
     sum_band:wei :      0.02s CPU      0.03s WALL (      17 calls)
     sum_band:loo :     83.98s CPU     84.57s WALL (      17 calls)
     sum_band:buf :      0.24s CPU      0.25s WALL (    2210 calls)
     sum_band:ini :      1.40s CPU      1.41s WALL (    2210 calls)
     sum_band:cal :      7.97s CPU      8.00s WALL (    2210 calls)
     sum_band:bec :      0.13s CPU      0.13s WALL (    2210 calls)
     addusdens    :     10.76s CPU     12.56s WALL (      17 calls)
     addusd:skk   :      0.01s CPU      0.02s WALL (      51 calls)
     addusd:dgemm :      3.78s CPU      5.38s WALL (     102 calls)
     addusd:qvan2 :      6.45s CPU      6.54s WALL (     102 calls)

     Called by *egterg:
     cdiaghg      :      6.87s CPU      6.90s WALL (    7507 calls)
     cegterg:over :     20.08s CPU     20.15s WALL (    5297 calls)
     cegterg:upda :      9.17s CPU      9.22s WALL (    5297 calls)
     cegterg:last :     23.10s CPU     23.18s WALL (    4337 calls)
     h_psi        :    395.36s CPU    397.44s WALL (    7637 calls)
     s_psi        :     15.91s CPU     16.00s WALL (    7637 calls)
     g_psi        :      0.50s CPU      0.50s WALL (    5297 calls)

     Called by h_psi:
     h_psi:calbec :     19.91s CPU     19.97s WALL (    7637 calls)
     vloc_psi     :    359.00s CPU    360.95s WALL (    7637 calls)
     add_vuspsi   :     15.85s CPU     15.93s WALL (    7637 calls)

     General routines
     calbec       :     30.01s CPU     30.15s WALL (   10497 calls)
     fft          :      5.09s CPU      5.19s WALL (     488 calls)
     ffts         :      0.12s CPU      0.12s WALL (      70 calls)
     fftw         :    388.69s CPU    391.24s WALL (  398652 calls)
     interpolate  :      0.52s CPU      0.52s WALL (      36 calls)

     Parallel routines

     PWSCF        :  10m12.20s CPU  10m20.31s WALL


   This run was terminated on:  17:43:22   1Feb2022            

=------------------------------------------------------------------------------=
   JOB DONE.
=------------------------------------------------------------------------------=
