
     Program PWSCF v.7.0 starts on  1Feb2022 at 17:54:37 

     This program is part of the open-source Quantum ESPRESSO suite
     for quantum simulation of materials; please cite
         "P. Giannozzi et al., J. Phys.:Condens. Matter 21 395502 (2009);
         "P. Giannozzi et al., J. Phys.:Condens. Matter 29 465901 (2017);
         "P. Giannozzi et al., J. Chem. Phys. 152 154105 (2020);
          URL http://www.quantum-espresso.org", 
     in publications or presentations arising from this work. More details at
     http://www.quantum-espresso.org/quote

     Parallel version (MPI), running on     1 processors

     MPI processes distributed on     1 nodes
     464 MiB available memory on the printing compute node when the environment starts

     Reading input from 02-nio-nscf.in
     Message from routine read_cards :
     DEPRECATED: no units specified in CELL_PARAMETERS card

     Current dimensions of program PWSCF are:
     Max number of different atomic species (ntypx) = 10
     Max number of k-points (npk) =  40000
     Max angular momentum in pseudopotentials (lmaxx) =  4
     Message from routine volume:
     axis vectors are left-handed

     Atomic positions and unit cell read from directory:
     ./nio.save/
     Atomic positions from file used, from input discarded

     Message from routine volume:
     axis vectors are left-handed
     Message from routine setup:
     using ibrav=0 with symmetry is DISCOURAGED, use correct ibrav instead

     Subspace diagonalization in iterative solution of the eigenvalue problem:
     a serial algorithm will be used


     G-vector sticks info
     --------------------
     sticks:   dense  smooth     PW     G-vecs:    dense   smooth      PW
     Sum        2457     813    283                60755    11627    2381

     Using Slab Decomposition



     bravais-lattice index     =            0
     lattice parameter (alat)  =       7.8802  a.u.
     unit-cell volume          =     244.6666 (a.u.)^3
     number of atoms/cell      =            4
     number of atomic types    =            3
     number of electrons       =        48.00
     number of Kohn-Sham states=           30
     kinetic-energy cutoff     =      50.0000  Ry
     charge density cutoff     =     600.0000  Ry
     Exchange-correlation=  SLA  PW   PBX  PBC
                           (   1   4   3   4   0   0   0)

     celldm(1)=   7.880158  celldm(2)=   0.000000  celldm(3)=   0.000000
     celldm(4)=   0.000000  celldm(5)=   0.000000  celldm(6)=   0.000000

     crystal axes: (cart. coord. in units of alat)
               a(1) = (   0.500000   0.500000   1.000000 )  
               a(2) = (   0.500000   1.000000   0.500000 )  
               a(3) = (   1.000000   0.500000   0.500000 )  

     reciprocal axes: (cart. coord. in units 2 pi/alat)
               b(1) = ( -0.500000 -0.500000  1.500000 )  
               b(2) = ( -0.500000  1.500000 -0.500000 )  
               b(3) = (  1.500000 -0.500000 -0.500000 )  


     PseudoPot. # 1 for O  read from file:
     /home/user/pseudo_dir/o_pbe_v1.2.uspp.F.UPF
     MD5 check sum: 734c27235a0248c51dbae37a1fbe46ec
     Pseudo is Ultrasoft + core correction, Zval =  6.0
     Generated by new atomic code, or converted to UPF format
     Using radial grid of  737 points,  5 beta functions with: 
                l(1) =   0
                l(2) =   0
                l(3) =   1
                l(4) =   1
                l(5) =   2
     Q(r) pseudized with  8 coefficients,  rinner =    0.900   0.900   0.900
                                                       0.900   0.900

     PseudoPot. # 2 for Ni read from file:
     /home/user/pseudo_dir/ni_pbe_v1.4.uspp.F.UPF
     MD5 check sum: 1ee80287db30b12d2bc1f57a5b5d6409
     Pseudo is Ultrasoft + core correction, Zval = 18.0
     Generated by new atomic code, or converted to UPF format
     Using radial grid of  865 points,  6 beta functions with: 
                l(1) =   0
                l(2) =   0
                l(3) =   1
                l(4) =   1
                l(5) =   2
                l(6) =   2
     Q(r) pseudized with 10 coefficients,  rinner =    0.980   0.980   0.980
                                                       0.980   0.980

     PseudoPot. # 3 for Ni read from file:
     /home/user/pseudo_dir/ni_pbe_v1.4.uspp.F.UPF
     MD5 check sum: 1ee80287db30b12d2bc1f57a5b5d6409
     Pseudo is Ultrasoft + core correction, Zval = 18.0
     Generated by new atomic code, or converted to UPF format
     Using radial grid of  865 points,  6 beta functions with: 
                l(1) =   0
                l(2) =   0
                l(3) =   1
                l(4) =   1
                l(5) =   2
                l(6) =   2
     Q(r) pseudized with 10 coefficients,  rinner =    0.980   0.980   0.980
                                                       0.980   0.980

     atomic species   valence    mass     pseudopotential
        O              6.00    15.99940     O ( 1.00)
        Ni1           18.00    58.59340     Ni( 1.00)
        Ni2           18.00    58.59340     Ni( 1.00)

     Starting magnetic structure 
     atomic species   magnetization
        O            0.000
        Ni1          0.500
        Ni2         -0.500

     12 Sym. Ops., with inversion, found


                                    s                        frac. trans.

      isym =  1     identity                                     

 cryst.   s( 1) = (     1          0          0      )
                  (     0          1          0      )
                  (     0          0          1      )

 cart.    s( 1) = (  1.0000000  0.0000000  0.0000000 )
                  (  0.0000000  1.0000000  0.0000000 )
                  (  0.0000000  0.0000000  1.0000000 )


      isym =  2     180 deg rotation - cart. axis [1,-1,0]       

 cryst.   s( 2) = (    -1          0          0      )
                  (     0          0         -1      )
                  (     0         -1          0      )

 cart.    s( 2) = (  0.0000000 -1.0000000  0.0000000 )
                  ( -1.0000000  0.0000000  0.0000000 )
                  (  0.0000000  0.0000000 -1.0000000 )


      isym =  3     180 deg rotation - cart. axis [-1,0,1]       

 cryst.   s( 3) = (     0          0         -1      )
                  (     0         -1          0      )
                  (    -1          0          0      )

 cart.    s( 3) = (  0.0000000  0.0000000 -1.0000000 )
                  (  0.0000000 -1.0000000  0.0000000 )
                  ( -1.0000000  0.0000000  0.0000000 )


      isym =  4     180 deg rotation - cart. axis [0,1,-1]       

 cryst.   s( 4) = (     0         -1          0      )
                  (    -1          0          0      )
                  (     0          0         -1      )

 cart.    s( 4) = ( -1.0000000  0.0000000  0.0000000 )
                  (  0.0000000  0.0000000 -1.0000000 )
                  (  0.0000000 -1.0000000  0.0000000 )


      isym =  5     120 deg rotation - cart. axis [-1,-1,-1]     

 cryst.   s( 5) = (     0          1          0      )
                  (     0          0          1      )
                  (     1          0          0      )

 cart.    s( 5) = (  0.0000000  1.0000000  0.0000000 )
                  (  0.0000000  0.0000000  1.0000000 )
                  (  1.0000000  0.0000000  0.0000000 )


      isym =  6     120 deg rotation - cart. axis [1,1,1]        

 cryst.   s( 6) = (     0          0          1      )
                  (     1          0          0      )
                  (     0          1          0      )

 cart.    s( 6) = (  0.0000000  0.0000000  1.0000000 )
                  (  1.0000000  0.0000000  0.0000000 )
                  (  0.0000000  1.0000000  0.0000000 )


      isym =  7     inversion                                    

 cryst.   s( 7) = (    -1          0          0      )
                  (     0         -1          0      )
                  (     0          0         -1      )

 cart.    s( 7) = ( -1.0000000  0.0000000  0.0000000 )
                  (  0.0000000 -1.0000000  0.0000000 )
                  (  0.0000000  0.0000000 -1.0000000 )


      isym =  8     inv. 180 deg rotation - cart. axis [1,-1,0]  

 cryst.   s( 8) = (     1          0          0      )
                  (     0          0          1      )
                  (     0          1          0      )

 cart.    s( 8) = (  0.0000000  1.0000000  0.0000000 )
                  (  1.0000000  0.0000000  0.0000000 )
                  (  0.0000000  0.0000000  1.0000000 )


      isym =  9     inv. 180 deg rotation - cart. axis [-1,0,1]  

 cryst.   s( 9) = (     0          0          1      )
                  (     0          1          0      )
                  (     1          0          0      )

 cart.    s( 9) = (  0.0000000  0.0000000  1.0000000 )
                  (  0.0000000  1.0000000  0.0000000 )
                  (  1.0000000  0.0000000  0.0000000 )


      isym = 10     inv. 180 deg rotation - cart. axis [0,1,-1]  

 cryst.   s(10) = (     0          1          0      )
                  (     1          0          0      )
                  (     0          0          1      )

 cart.    s(10) = (  1.0000000  0.0000000  0.0000000 )
                  (  0.0000000  0.0000000  1.0000000 )
                  (  0.0000000  1.0000000  0.0000000 )


      isym = 11     inv. 120 deg rotation - cart. axis [-1,-1,-1]

 cryst.   s(11) = (     0         -1          0      )
                  (     0          0         -1      )
                  (    -1          0          0      )

 cart.    s(11) = (  0.0000000 -1.0000000  0.0000000 )
                  (  0.0000000  0.0000000 -1.0000000 )
                  ( -1.0000000  0.0000000  0.0000000 )


      isym = 12     inv. 120 deg rotation - cart. axis [1,1,1]   

 cryst.   s(12) = (     0          0         -1      )
                  (    -1          0          0      )
                  (     0         -1          0      )

 cart.    s(12) = (  0.0000000  0.0000000 -1.0000000 )
                  ( -1.0000000  0.0000000  0.0000000 )
                  (  0.0000000 -1.0000000  0.0000000 )


   Cartesian axes

     site n.     atom                  positions (alat units)
         1           O   tau(   1) = (   0.5000000   0.5000000   0.5000000  )
         2           O   tau(   2) = (   1.5000000   1.5000000   1.5000000  )
         3           Ni1 tau(   3) = (   0.0000000   0.0000000   0.0000000  )
         4           Ni2 tau(   4) = (   1.0000000   1.0000000   1.0000000  )

   Crystallographic axes

     site n.     atom                  positions (cryst. coord.)
         1           O   tau(   1) = (  0.2500000  0.2500000  0.2500000  )
         2           O   tau(   2) = (  0.7500000  0.7500000  0.7500000  )
         3           Ni1 tau(   3) = (  0.0000000  0.0000000  0.0000000  )
         4           Ni2 tau(   4) = (  0.5000000  0.5000000  0.5000000  )

     number of k points=   189 (tetrahedron method)
                       cart. coord. in units 2pi/alat
        k(    1) = (   0.0000000   0.0000000   0.0000000), wk =   0.0005787
        k(    2) = (   0.1250000  -0.0416667  -0.0416667), wk =   0.0034722
        k(    3) = (   0.2500000  -0.0833333  -0.0833333), wk =   0.0034722
        k(    4) = (   0.3750000  -0.1250000  -0.1250000), wk =   0.0034722
        k(    5) = (   0.5000000  -0.1666667  -0.1666667), wk =   0.0034722
        k(    6) = (   0.6250000  -0.2083333  -0.2083333), wk =   0.0034722
        k(    7) = (  -0.7500000   0.2500000   0.2500000), wk =   0.0017361
        k(    8) = (   0.0833333   0.0833333  -0.0833333), wk =   0.0034722
        k(    9) = (   0.2083333   0.0416667  -0.1250000), wk =   0.0069444
        k(   10) = (   0.3333333   0.0000000  -0.1666667), wk =   0.0069444
        k(   11) = (   0.4583333  -0.0416667  -0.2083333), wk =   0.0069444
        k(   12) = (   0.5833333  -0.0833333  -0.2500000), wk =   0.0069444
        k(   13) = (  -0.7916667   0.3750000   0.2083333), wk =   0.0069444
        k(   14) = (  -0.6666667   0.3333333   0.1666667), wk =   0.0069444
        k(   15) = (  -0.5416667   0.2916667   0.1250000), wk =   0.0069444
        k(   16) = (  -0.4166667   0.2500000   0.0833333), wk =   0.0069444
        k(   17) = (  -0.2916667   0.2083333   0.0416667), wk =   0.0069444
        k(   18) = (  -0.1666667   0.1666667   0.0000000), wk =   0.0034722
        k(   19) = (   0.1666667   0.1666667  -0.1666667), wk =   0.0034722
        k(   20) = (   0.2916667   0.1250000  -0.2083333), wk =   0.0069444
        k(   21) = (   0.4166667   0.0833333  -0.2500000), wk =   0.0069444
        k(   22) = (   0.5416667   0.0416667  -0.2916667), wk =   0.0069444
        k(   23) = (  -0.8333333   0.5000000   0.1666667), wk =   0.0069444
        k(   24) = (  -0.7083333   0.4583333   0.1250000), wk =   0.0069444
        k(   25) = (  -0.5833333   0.4166667   0.0833333), wk =   0.0069444
        k(   26) = (  -0.4583333   0.3750000   0.0416667), wk =   0.0069444
        k(   27) = (  -0.3333333   0.3333333  -0.0000000), wk =   0.0034722
        k(   28) = (   0.2500000   0.2500000  -0.2500000), wk =   0.0034722
        k(   29) = (   0.3750000   0.2083333  -0.2916667), wk =   0.0069444
        k(   30) = (   0.5000000   0.1666667  -0.3333333), wk =   0.0069444
        k(   31) = (  -0.8750000   0.6250000   0.1250000), wk =   0.0069444
        k(   32) = (  -0.7500000   0.5833333   0.0833333), wk =   0.0069444
        k(   33) = (  -0.6250000   0.5416667   0.0416667), wk =   0.0069444
        k(   34) = (  -0.5000000   0.5000000   0.0000000), wk =   0.0034722
        k(   35) = (   0.3333333   0.3333333  -0.3333333), wk =   0.0034722
        k(   36) = (   0.4583333   0.2916667  -0.3750000), wk =   0.0069444
        k(   37) = (  -0.9166667   0.7500000   0.0833333), wk =   0.0069444
        k(   38) = (  -0.7916667   0.7083333   0.0416667), wk =   0.0069444
        k(   39) = (  -0.6666667   0.6666667   0.0000000), wk =   0.0034722
        k(   40) = (   0.4166667   0.4166667  -0.4166667), wk =   0.0034722
        k(   41) = (  -0.9583333   0.8750000   0.0416667), wk =   0.0069444
        k(   42) = (  -0.8333333   0.8333333  -0.0000000), wk =   0.0034722
        k(   43) = (  -0.5000000  -0.5000000   0.5000000), wk =   0.0017361
        k(   44) = (   0.0416667   0.0416667   0.0416667), wk =   0.0011574
        k(   45) = (   0.1666667   0.0000000   0.0000000), wk =   0.0034722
        k(   46) = (   0.2916667  -0.0416667  -0.0416667), wk =   0.0034722
        k(   47) = (   0.4166667  -0.0833333  -0.0833333), wk =   0.0034722
        k(   48) = (   0.5416667  -0.1250000  -0.1250000), wk =   0.0034722
        k(   49) = (  -0.8333333   0.3333333   0.3333333), wk =   0.0034722
        k(   50) = (  -0.7083333   0.2916667   0.2916667), wk =   0.0034722
        k(   51) = (  -0.5833333   0.2500000   0.2500000), wk =   0.0034722
        k(   52) = (  -0.4583333   0.2083333   0.2083333), wk =   0.0034722
        k(   53) = (  -0.3333333   0.1666667   0.1666667), wk =   0.0034722
        k(   54) = (  -0.2083333   0.1250000   0.1250000), wk =   0.0034722
        k(   55) = (   0.1250000   0.1250000  -0.0416667), wk =   0.0034722
        k(   56) = (   0.2500000   0.0833333  -0.0833333), wk =   0.0069444
        k(   57) = (   0.3750000   0.0416667  -0.1250000), wk =   0.0069444
        k(   58) = (   0.5000000   0.0000000  -0.1666667), wk =   0.0069444
        k(   59) = (  -0.8750000   0.4583333   0.2916667), wk =   0.0069444
        k(   60) = (  -0.7500000   0.4166667   0.2500000), wk =   0.0069444
        k(   61) = (  -0.6250000   0.3750000   0.2083333), wk =   0.0069444
        k(   62) = (  -0.5000000   0.3333333   0.1666667), wk =   0.0069444
        k(   63) = (  -0.3750000   0.2916667   0.1250000), wk =   0.0069444
        k(   64) = (  -0.2500000   0.2500000   0.0833333), wk =   0.0069444
        k(   65) = (   0.2083333   0.2083333  -0.1250000), wk =   0.0034722
        k(   66) = (   0.3333333   0.1666667  -0.1666667), wk =   0.0069444
        k(   67) = (   0.4583333   0.1250000  -0.2083333), wk =   0.0069444
        k(   68) = (  -0.9166667   0.5833333   0.2500000), wk =   0.0069444
        k(   69) = (  -0.7916667   0.5416667   0.2083333), wk =   0.0069444
        k(   70) = (  -0.6666667   0.5000000   0.1666667), wk =   0.0069444
        k(   71) = (  -0.5416667   0.4583333   0.1250000), wk =   0.0069444
        k(   72) = (  -0.4166667   0.4166667   0.0833333), wk =   0.0069444
        k(   73) = (  -0.2916667   0.3750000   0.0416667), wk =   0.0069444
        k(   74) = (   0.2916667   0.2916667  -0.2083333), wk =   0.0034722
        k(   75) = (   0.4166667   0.2500000  -0.2500000), wk =   0.0069444
        k(   76) = (  -0.9583333   0.7083333   0.2083333), wk =   0.0069444
        k(   77) = (  -0.8333333   0.6666667   0.1666667), wk =   0.0069444
        k(   78) = (  -0.7083333   0.6250000   0.1250000), wk =   0.0069444
        k(   79) = (  -0.5833333   0.5833333   0.0833333), wk =   0.0069444
        k(   80) = (  -0.4583333   0.5416667   0.0416667), wk =   0.0069444
        k(   81) = (  -0.3333333   0.5000000   0.0000000), wk =   0.0069444
        k(   82) = (   0.3750000   0.3750000  -0.2916667), wk =   0.0034722
        k(   83) = (  -1.0000000   0.8333333   0.1666667), wk =   0.0069444
        k(   84) = (  -0.8750000   0.7916667   0.1250000), wk =   0.0069444
        k(   85) = (  -0.7500000   0.7500000   0.0833333), wk =   0.0069444
        k(   86) = (  -0.6250000   0.7083333   0.0416667), wk =   0.0069444
        k(   87) = (  -0.5000000   0.6666667  -0.0000000), wk =   0.0069444
        k(   88) = (  -0.3750000   0.6250000  -0.0416667), wk =   0.0069444
        k(   89) = (  -0.5416667  -0.5416667   0.6250000), wk =   0.0034722
        k(   90) = (  -0.4166667  -0.5833333   0.5833333), wk =   0.0069444
        k(   91) = (  -0.2916667  -0.6250000   0.5416667), wk =   0.0069444
        k(   92) = (  -0.1666667  -0.6666667   0.5000000), wk =   0.0069444
        k(   93) = (  -0.0416667  -0.7083333   0.4583333), wk =   0.0069444
        k(   94) = (   0.0833333  -0.7500000   0.4166667), wk =   0.0034722
        k(   95) = (  -0.4583333  -0.4583333   0.5416667), wk =   0.0034722
        k(   96) = (  -0.3333333  -0.5000000   0.5000000), wk =   0.0069444
        k(   97) = (  -0.2083333  -0.5416667   0.4583333), wk =   0.0069444
        k(   98) = (  -0.0833333  -0.5833333   0.4166667), wk =   0.0069444
        k(   99) = (  -0.3750000  -0.3750000   0.4583333), wk =   0.0034722
        k(  100) = (  -0.2500000  -0.4166667   0.4166667), wk =   0.0069444
        k(  101) = (  -0.1250000  -0.4583333   0.3750000), wk =   0.0069444
        k(  102) = (  -0.2916667  -0.2916667   0.3750000), wk =   0.0034722
        k(  103) = (  -0.1666667  -0.3333333   0.3333333), wk =   0.0069444
        k(  104) = (  -0.2083333  -0.2083333   0.2916667), wk =   0.0034722
        k(  105) = (   0.0833333   0.0833333   0.0833333), wk =   0.0011574
        k(  106) = (   0.2083333   0.0416667   0.0416667), wk =   0.0034722
        k(  107) = (   0.3333333   0.0000000   0.0000000), wk =   0.0034722
        k(  108) = (   0.4583333  -0.0416667  -0.0416667), wk =   0.0034722
        k(  109) = (  -0.9166667   0.4166667   0.4166667), wk =   0.0034722
        k(  110) = (  -0.7916667   0.3750000   0.3750000), wk =   0.0034722
        k(  111) = (  -0.6666667   0.3333333   0.3333333), wk =   0.0034722
        k(  112) = (  -0.5416667   0.2916667   0.2916667), wk =   0.0034722
        k(  113) = (  -0.4166667   0.2500000   0.2500000), wk =   0.0034722
        k(  114) = (   0.1666667   0.1666667   0.0000000), wk =   0.0034722
        k(  115) = (   0.2916667   0.1250000  -0.0416667), wk =   0.0069444
        k(  116) = (   0.4166667   0.0833333  -0.0833333), wk =   0.0069444
        k(  117) = (  -0.9583333   0.5416667   0.3750000), wk =   0.0069444
        k(  118) = (  -0.8333333   0.5000000   0.3333333), wk =   0.0069444
        k(  119) = (  -0.7083333   0.4583333   0.2916667), wk =   0.0069444
        k(  120) = (  -0.5833333   0.4166667   0.2500000), wk =   0.0069444
        k(  121) = (  -0.4583333   0.3750000   0.2083333), wk =   0.0069444
        k(  122) = (   0.2500000   0.2500000  -0.0833333), wk =   0.0034722
        k(  123) = (   0.3750000   0.2083333  -0.1250000), wk =   0.0069444
        k(  124) = (  -1.0000000   0.6666667   0.3333333), wk =   0.0069444
        k(  125) = (  -0.8750000   0.6250000   0.2916667), wk =   0.0069444
        k(  126) = (  -0.7500000   0.5833333   0.2500000), wk =   0.0069444
        k(  127) = (  -0.6250000   0.5416667   0.2083333), wk =   0.0069444
        k(  128) = (  -0.5000000   0.5000000   0.1666667), wk =   0.0069444
        k(  129) = (   0.3333333   0.3333333  -0.1666667), wk =   0.0034722
        k(  130) = (  -1.0416667   0.7916667   0.2916667), wk =   0.0069444
        k(  131) = (  -0.9166667   0.7500000   0.2500000), wk =   0.0069444
        k(  132) = (  -0.7916667   0.7083333   0.2083333), wk =   0.0069444
        k(  133) = (  -0.6666667   0.6666667   0.1666667), wk =   0.0069444
        k(  134) = (  -0.5416667   0.6250000   0.1250000), wk =   0.0069444
        k(  135) = (  -0.5833333  -0.5833333   0.7500000), wk =   0.0034722
        k(  136) = (  -0.4583333  -0.6250000   0.7083333), wk =   0.0069444
        k(  137) = (  -0.3333333  -0.6666667   0.6666667), wk =   0.0069444
        k(  138) = (  -0.2083333  -0.7083333   0.6250000), wk =   0.0069444
        k(  139) = (  -0.0833333  -0.7500000   0.5833333), wk =   0.0034722
        k(  140) = (  -0.5000000  -0.5000000   0.6666667), wk =   0.0034722
        k(  141) = (  -0.3750000  -0.5416667   0.6250000), wk =   0.0069444
        k(  142) = (  -0.2500000  -0.5833333   0.5833333), wk =   0.0069444
        k(  143) = (  -0.4166667  -0.4166667   0.5833333), wk =   0.0034722
        k(  144) = (  -0.2916667  -0.4583333   0.5416667), wk =   0.0069444
        k(  145) = (  -0.3333333  -0.3333333   0.5000000), wk =   0.0034722
        k(  146) = (   0.1250000   0.1250000   0.1250000), wk =   0.0011574
        k(  147) = (   0.2500000   0.0833333   0.0833333), wk =   0.0034722
        k(  148) = (   0.3750000   0.0416667   0.0416667), wk =   0.0034722
        k(  149) = (  -1.0000000   0.5000000   0.5000000), wk =   0.0034722
        k(  150) = (  -0.8750000   0.4583333   0.4583333), wk =   0.0034722
        k(  151) = (  -0.7500000   0.4166667   0.4166667), wk =   0.0034722
        k(  152) = (  -0.6250000   0.3750000   0.3750000), wk =   0.0034722
        k(  153) = (   0.2083333   0.2083333   0.0416667), wk =   0.0034722
        k(  154) = (   0.3333333   0.1666667  -0.0000000), wk =   0.0069444
        k(  155) = (  -1.0416667   0.6250000   0.4583333), wk =   0.0069444
        k(  156) = (  -0.9166667   0.5833333   0.4166667), wk =   0.0069444
        k(  157) = (  -0.7916667   0.5416667   0.3750000), wk =   0.0069444
        k(  158) = (  -0.6666667   0.5000000   0.3333333), wk =   0.0069444
        k(  159) = (   0.2916667   0.2916667  -0.0416667), wk =   0.0034722
        k(  160) = (  -1.0833333   0.7500000   0.4166667), wk =   0.0069444
        k(  161) = (  -0.9583333   0.7083333   0.3750000), wk =   0.0069444
        k(  162) = (  -0.8333333   0.6666667   0.3333333), wk =   0.0069444
        k(  163) = (  -0.7083333   0.6250000   0.2916667), wk =   0.0069444
        k(  164) = (  -0.6250000  -0.6250000   0.8750000), wk =   0.0034722
        k(  165) = (  -0.5000000  -0.6666667   0.8333333), wk =   0.0069444
        k(  166) = (  -0.3750000  -0.7083333   0.7916667), wk =   0.0069444
        k(  167) = (  -0.2500000  -0.7500000   0.7500000), wk =   0.0034722
        k(  168) = (  -0.5416667  -0.5416667   0.7916667), wk =   0.0034722
        k(  169) = (  -0.4166667  -0.5833333   0.7500000), wk =   0.0069444
        k(  170) = (  -0.4583333  -0.4583333   0.7083333), wk =   0.0034722
        k(  171) = (   0.1666667   0.1666667   0.1666667), wk =   0.0011574
        k(  172) = (   0.2916667   0.1250000   0.1250000), wk =   0.0034722
        k(  173) = (  -1.0833333   0.5833333   0.5833333), wk =   0.0034722
        k(  174) = (  -0.9583333   0.5416667   0.5416667), wk =   0.0034722
        k(  175) = (  -0.8333333   0.5000000   0.5000000), wk =   0.0034722
        k(  176) = (   0.2500000   0.2500000   0.0833333), wk =   0.0034722
        k(  177) = (  -1.1250000   0.7083333   0.5416667), wk =   0.0069444
        k(  178) = (  -1.0000000   0.6666667   0.5000000), wk =   0.0069444
        k(  179) = (  -0.8750000   0.6250000   0.4583333), wk =   0.0069444
        k(  180) = (  -0.6666667  -0.6666667   1.0000000), wk =   0.0034722
        k(  181) = (  -0.5416667  -0.7083333   0.9583333), wk =   0.0069444
        k(  182) = (  -0.4166667  -0.7500000   0.9166667), wk =   0.0034722
        k(  183) = (  -0.5833333  -0.5833333   0.9166667), wk =   0.0034722
        k(  184) = (   0.2083333   0.2083333   0.2083333), wk =   0.0011574
        k(  185) = (  -1.1666667   0.6666667   0.6666667), wk =   0.0034722
        k(  186) = (  -1.0416667   0.6250000   0.6250000), wk =   0.0034722
        k(  187) = (  -0.7083333  -0.7083333   1.1250000), wk =   0.0034722
        k(  188) = (  -0.5833333  -0.7500000   1.0833333), wk =   0.0034722
        k(  189) = (  -0.2500000  -0.2500000  -0.2500000), wk =   0.0005787

                       cryst. coord.
        k(    1) = (   0.0000000   0.0000000   0.0000000), wk =   0.0005787
        k(    2) = (   0.0000000  -0.0000000   0.0833333), wk =   0.0034722
        k(    3) = (   0.0000000  -0.0000000   0.1666667), wk =   0.0034722
        k(    4) = (   0.0000000   0.0000000   0.2500000), wk =   0.0034722
        k(    5) = (   0.0000000  -0.0000000   0.3333333), wk =   0.0034722
        k(    6) = (  -0.0000000  -0.0000000   0.4166667), wk =   0.0034722
        k(    7) = (   0.0000000   0.0000000  -0.5000000), wk =   0.0017361
        k(    8) = (   0.0000000   0.0833333   0.0833333), wk =   0.0034722
        k(    9) = (  -0.0000000   0.0833333   0.1666667), wk =   0.0069444
        k(   10) = (   0.0000000   0.0833333   0.2500000), wk =   0.0069444
        k(   11) = (  -0.0000000   0.0833333   0.3333333), wk =   0.0069444
        k(   12) = (   0.0000000   0.0833333   0.4166667), wk =   0.0069444
        k(   13) = (   0.0000000   0.0833333  -0.5000000), wk =   0.0069444
        k(   14) = (   0.0000000   0.0833333  -0.4166667), wk =   0.0069444
        k(   15) = (   0.0000000   0.0833333  -0.3333333), wk =   0.0069444
        k(   16) = (   0.0000000   0.0833333  -0.2500000), wk =   0.0069444
        k(   17) = (   0.0000000   0.0833333  -0.1666667), wk =   0.0069444
        k(   18) = (   0.0000000   0.0833333  -0.0833333), wk =   0.0034722
        k(   19) = (   0.0000000   0.1666667   0.1666667), wk =   0.0034722
        k(   20) = (   0.0000000   0.1666667   0.2500000), wk =   0.0069444
        k(   21) = (  -0.0000000   0.1666667   0.3333333), wk =   0.0069444
        k(   22) = (   0.0000000   0.1666667   0.4166667), wk =   0.0069444
        k(   23) = (   0.0000000   0.1666667  -0.5000000), wk =   0.0069444
        k(   24) = (   0.0000000   0.1666667  -0.4166667), wk =   0.0069444
        k(   25) = (  -0.0000000   0.1666667  -0.3333333), wk =   0.0069444
        k(   26) = (   0.0000000   0.1666667  -0.2500000), wk =   0.0069444
        k(   27) = (   0.0000000   0.1666667  -0.1666667), wk =   0.0034722
        k(   28) = (   0.0000000   0.2500000   0.2500000), wk =   0.0034722
        k(   29) = (   0.0000000   0.2500000   0.3333333), wk =   0.0069444
        k(   30) = (  -0.0000000   0.2500000   0.4166667), wk =   0.0069444
        k(   31) = (   0.0000000   0.2500000  -0.5000000), wk =   0.0069444
        k(   32) = (  -0.0000000   0.2500000  -0.4166667), wk =   0.0069444
        k(   33) = (   0.0000000   0.2500000  -0.3333333), wk =   0.0069444
        k(   34) = (   0.0000000   0.2500000  -0.2500000), wk =   0.0034722
        k(   35) = (   0.0000000   0.3333333   0.3333333), wk =   0.0034722
        k(   36) = (   0.0000000   0.3333333   0.4166667), wk =   0.0069444
        k(   37) = (   0.0000000   0.3333333  -0.5000000), wk =   0.0069444
        k(   38) = (  -0.0000000   0.3333333  -0.4166667), wk =   0.0069444
        k(   39) = (   0.0000000   0.3333333  -0.3333333), wk =   0.0034722
        k(   40) = (   0.0000000   0.4166667   0.4166667), wk =   0.0034722
        k(   41) = (   0.0000000   0.4166667  -0.5000000), wk =   0.0069444
        k(   42) = (  -0.0000000   0.4166667  -0.4166667), wk =   0.0034722
        k(   43) = (   0.0000000  -0.5000000  -0.5000000), wk =   0.0017361
        k(   44) = (   0.0833333   0.0833333   0.0833333), wk =   0.0011574
        k(   45) = (   0.0833333   0.0833333   0.1666667), wk =   0.0034722
        k(   46) = (   0.0833333   0.0833333   0.2500000), wk =   0.0034722
        k(   47) = (   0.0833333   0.0833333   0.3333333), wk =   0.0034722
        k(   48) = (   0.0833333   0.0833333   0.4166667), wk =   0.0034722
        k(   49) = (   0.0833333   0.0833333  -0.5000000), wk =   0.0034722
        k(   50) = (   0.0833333   0.0833333  -0.4166667), wk =   0.0034722
        k(   51) = (   0.0833333   0.0833333  -0.3333333), wk =   0.0034722
        k(   52) = (   0.0833333   0.0833333  -0.2500000), wk =   0.0034722
        k(   53) = (   0.0833333   0.0833333  -0.1666667), wk =   0.0034722
        k(   54) = (   0.0833333   0.0833333  -0.0833333), wk =   0.0034722
        k(   55) = (   0.0833333   0.1666667   0.1666667), wk =   0.0034722
        k(   56) = (   0.0833333   0.1666667   0.2500000), wk =   0.0069444
        k(   57) = (   0.0833333   0.1666667   0.3333333), wk =   0.0069444
        k(   58) = (   0.0833333   0.1666667   0.4166667), wk =   0.0069444
        k(   59) = (   0.0833333   0.1666667  -0.5000000), wk =   0.0069444
        k(   60) = (   0.0833333   0.1666667  -0.4166667), wk =   0.0069444
        k(   61) = (   0.0833333   0.1666667  -0.3333333), wk =   0.0069444
        k(   62) = (   0.0833333   0.1666667  -0.2500000), wk =   0.0069444
        k(   63) = (   0.0833333   0.1666667  -0.1666667), wk =   0.0069444
        k(   64) = (   0.0833333   0.1666667  -0.0833333), wk =   0.0069444
        k(   65) = (   0.0833333   0.2500000   0.2500000), wk =   0.0034722
        k(   66) = (   0.0833333   0.2500000   0.3333333), wk =   0.0069444
        k(   67) = (   0.0833333   0.2500000   0.4166667), wk =   0.0069444
        k(   68) = (   0.0833333   0.2500000  -0.5000000), wk =   0.0069444
        k(   69) = (   0.0833333   0.2500000  -0.4166667), wk =   0.0069444
        k(   70) = (   0.0833333   0.2500000  -0.3333333), wk =   0.0069444
        k(   71) = (   0.0833333   0.2500000  -0.2500000), wk =   0.0069444
        k(   72) = (   0.0833333   0.2500000  -0.1666667), wk =   0.0069444
        k(   73) = (   0.0833333   0.2500000  -0.0833333), wk =   0.0069444
        k(   74) = (   0.0833333   0.3333333   0.3333333), wk =   0.0034722
        k(   75) = (   0.0833333   0.3333333   0.4166667), wk =   0.0069444
        k(   76) = (   0.0833333   0.3333333  -0.5000000), wk =   0.0069444
        k(   77) = (   0.0833333   0.3333333  -0.4166667), wk =   0.0069444
        k(   78) = (   0.0833333   0.3333333  -0.3333333), wk =   0.0069444
        k(   79) = (   0.0833333   0.3333333  -0.2500000), wk =   0.0069444
        k(   80) = (   0.0833333   0.3333333  -0.1666667), wk =   0.0069444
        k(   81) = (   0.0833333   0.3333333  -0.0833333), wk =   0.0069444
        k(   82) = (   0.0833333   0.4166667   0.4166667), wk =   0.0034722
        k(   83) = (   0.0833333   0.4166667  -0.5000000), wk =   0.0069444
        k(   84) = (   0.0833333   0.4166667  -0.4166667), wk =   0.0069444
        k(   85) = (   0.0833333   0.4166667  -0.3333333), wk =   0.0069444
        k(   86) = (   0.0833333   0.4166667  -0.2500000), wk =   0.0069444
        k(   87) = (   0.0833333   0.4166667  -0.1666667), wk =   0.0069444
        k(   88) = (   0.0833333   0.4166667  -0.0833333), wk =   0.0069444
        k(   89) = (   0.0833333  -0.5000000  -0.5000000), wk =   0.0034722
        k(   90) = (   0.0833333  -0.5000000  -0.4166667), wk =   0.0069444
        k(   91) = (   0.0833333  -0.5000000  -0.3333333), wk =   0.0069444
        k(   92) = (   0.0833333  -0.5000000  -0.2500000), wk =   0.0069444
        k(   93) = (   0.0833333  -0.5000000  -0.1666667), wk =   0.0069444
        k(   94) = (   0.0833333  -0.5000000  -0.0833333), wk =   0.0034722
        k(   95) = (   0.0833333  -0.4166667  -0.4166667), wk =   0.0034722
        k(   96) = (   0.0833333  -0.4166667  -0.3333333), wk =   0.0069444
        k(   97) = (   0.0833333  -0.4166667  -0.2500000), wk =   0.0069444
        k(   98) = (   0.0833333  -0.4166667  -0.1666667), wk =   0.0069444
        k(   99) = (   0.0833333  -0.3333333  -0.3333333), wk =   0.0034722
        k(  100) = (   0.0833333  -0.3333333  -0.2500000), wk =   0.0069444
        k(  101) = (   0.0833333  -0.3333333  -0.1666667), wk =   0.0069444
        k(  102) = (   0.0833333  -0.2500000  -0.2500000), wk =   0.0034722
        k(  103) = (   0.0833333  -0.2500000  -0.1666667), wk =   0.0069444
        k(  104) = (   0.0833333  -0.1666667  -0.1666667), wk =   0.0034722
        k(  105) = (   0.1666667   0.1666667   0.1666667), wk =   0.0011574
        k(  106) = (   0.1666667   0.1666667   0.2500000), wk =   0.0034722
        k(  107) = (   0.1666667   0.1666667   0.3333333), wk =   0.0034722
        k(  108) = (   0.1666667   0.1666667   0.4166667), wk =   0.0034722
        k(  109) = (   0.1666667   0.1666667  -0.5000000), wk =   0.0034722
        k(  110) = (   0.1666667   0.1666667  -0.4166667), wk =   0.0034722
        k(  111) = (   0.1666667   0.1666667  -0.3333333), wk =   0.0034722
        k(  112) = (   0.1666667   0.1666667  -0.2500000), wk =   0.0034722
        k(  113) = (   0.1666667   0.1666667  -0.1666667), wk =   0.0034722
        k(  114) = (   0.1666667   0.2500000   0.2500000), wk =   0.0034722
        k(  115) = (   0.1666667   0.2500000   0.3333333), wk =   0.0069444
        k(  116) = (   0.1666667   0.2500000   0.4166667), wk =   0.0069444
        k(  117) = (   0.1666667   0.2500000  -0.5000000), wk =   0.0069444
        k(  118) = (   0.1666667   0.2500000  -0.4166667), wk =   0.0069444
        k(  119) = (   0.1666667   0.2500000  -0.3333333), wk =   0.0069444
        k(  120) = (   0.1666667   0.2500000  -0.2500000), wk =   0.0069444
        k(  121) = (   0.1666667   0.2500000  -0.1666667), wk =   0.0069444
        k(  122) = (   0.1666667   0.3333333   0.3333333), wk =   0.0034722
        k(  123) = (   0.1666667   0.3333333   0.4166667), wk =   0.0069444
        k(  124) = (   0.1666667   0.3333333  -0.5000000), wk =   0.0069444
        k(  125) = (   0.1666667   0.3333333  -0.4166667), wk =   0.0069444
        k(  126) = (   0.1666667   0.3333333  -0.3333333), wk =   0.0069444
        k(  127) = (   0.1666667   0.3333333  -0.2500000), wk =   0.0069444
        k(  128) = (   0.1666667   0.3333333  -0.1666667), wk =   0.0069444
        k(  129) = (   0.1666667   0.4166667   0.4166667), wk =   0.0034722
        k(  130) = (   0.1666667   0.4166667  -0.5000000), wk =   0.0069444
        k(  131) = (   0.1666667   0.4166667  -0.4166667), wk =   0.0069444
        k(  132) = (   0.1666667   0.4166667  -0.3333333), wk =   0.0069444
        k(  133) = (   0.1666667   0.4166667  -0.2500000), wk =   0.0069444
        k(  134) = (   0.1666667   0.4166667  -0.1666667), wk =   0.0069444
        k(  135) = (   0.1666667  -0.5000000  -0.5000000), wk =   0.0034722
        k(  136) = (   0.1666667  -0.5000000  -0.4166667), wk =   0.0069444
        k(  137) = (   0.1666667  -0.5000000  -0.3333333), wk =   0.0069444
        k(  138) = (   0.1666667  -0.5000000  -0.2500000), wk =   0.0069444
        k(  139) = (   0.1666667  -0.5000000  -0.1666667), wk =   0.0034722
        k(  140) = (   0.1666667  -0.4166667  -0.4166667), wk =   0.0034722
        k(  141) = (   0.1666667  -0.4166667  -0.3333333), wk =   0.0069444
        k(  142) = (   0.1666667  -0.4166667  -0.2500000), wk =   0.0069444
        k(  143) = (   0.1666667  -0.3333333  -0.3333333), wk =   0.0034722
        k(  144) = (   0.1666667  -0.3333333  -0.2500000), wk =   0.0069444
        k(  145) = (   0.1666667  -0.2500000  -0.2500000), wk =   0.0034722
        k(  146) = (   0.2500000   0.2500000   0.2500000), wk =   0.0011574
        k(  147) = (   0.2500000   0.2500000   0.3333333), wk =   0.0034722
        k(  148) = (   0.2500000   0.2500000   0.4166667), wk =   0.0034722
        k(  149) = (   0.2500000   0.2500000  -0.5000000), wk =   0.0034722
        k(  150) = (   0.2500000   0.2500000  -0.4166667), wk =   0.0034722
        k(  151) = (   0.2500000   0.2500000  -0.3333333), wk =   0.0034722
        k(  152) = (   0.2500000   0.2500000  -0.2500000), wk =   0.0034722
        k(  153) = (   0.2500000   0.3333333   0.3333333), wk =   0.0034722
        k(  154) = (   0.2500000   0.3333333   0.4166667), wk =   0.0069444
        k(  155) = (   0.2500000   0.3333333  -0.5000000), wk =   0.0069444
        k(  156) = (   0.2500000   0.3333333  -0.4166667), wk =   0.0069444
        k(  157) = (   0.2500000   0.3333333  -0.3333333), wk =   0.0069444
        k(  158) = (   0.2500000   0.3333333  -0.2500000), wk =   0.0069444
        k(  159) = (   0.2500000   0.4166667   0.4166667), wk =   0.0034722
        k(  160) = (   0.2500000   0.4166667  -0.5000000), wk =   0.0069444
        k(  161) = (   0.2500000   0.4166667  -0.4166667), wk =   0.0069444
        k(  162) = (   0.2500000   0.4166667  -0.3333333), wk =   0.0069444
        k(  163) = (   0.2500000   0.4166667  -0.2500000), wk =   0.0069444
        k(  164) = (   0.2500000  -0.5000000  -0.5000000), wk =   0.0034722
        k(  165) = (   0.2500000  -0.5000000  -0.4166667), wk =   0.0069444
        k(  166) = (   0.2500000  -0.5000000  -0.3333333), wk =   0.0069444
        k(  167) = (   0.2500000  -0.5000000  -0.2500000), wk =   0.0034722
        k(  168) = (   0.2500000  -0.4166667  -0.4166667), wk =   0.0034722
        k(  169) = (   0.2500000  -0.4166667  -0.3333333), wk =   0.0069444
        k(  170) = (   0.2500000  -0.3333333  -0.3333333), wk =   0.0034722
        k(  171) = (   0.3333333   0.3333333   0.3333333), wk =   0.0011574
        k(  172) = (   0.3333333   0.3333333   0.4166667), wk =   0.0034722
        k(  173) = (   0.3333333   0.3333333  -0.5000000), wk =   0.0034722
        k(  174) = (   0.3333333   0.3333333  -0.4166667), wk =   0.0034722
        k(  175) = (   0.3333333   0.3333333  -0.3333333), wk =   0.0034722
        k(  176) = (   0.3333333   0.4166667   0.4166667), wk =   0.0034722
        k(  177) = (   0.3333333   0.4166667  -0.5000000), wk =   0.0069444
        k(  178) = (   0.3333333   0.4166667  -0.4166667), wk =   0.0069444
        k(  179) = (   0.3333333   0.4166667  -0.3333333), wk =   0.0069444
        k(  180) = (   0.3333333  -0.5000000  -0.5000000), wk =   0.0034722
        k(  181) = (   0.3333333  -0.5000000  -0.4166667), wk =   0.0069444
        k(  182) = (   0.3333333  -0.5000000  -0.3333333), wk =   0.0034722
        k(  183) = (   0.3333333  -0.4166667  -0.4166667), wk =   0.0034722
        k(  184) = (   0.4166667   0.4166667   0.4166667), wk =   0.0011574
        k(  185) = (   0.4166667   0.4166667  -0.5000000), wk =   0.0034722
        k(  186) = (   0.4166667   0.4166667  -0.4166667), wk =   0.0034722
        k(  187) = (   0.4166667  -0.5000000  -0.5000000), wk =   0.0034722
        k(  188) = (   0.4166667  -0.5000000  -0.4166667), wk =   0.0034722
        k(  189) = (  -0.5000000  -0.5000000  -0.5000000), wk =   0.0005787

     Dense  grid:    60755 G-vectors     FFT dimensions: (  75,  75,  75)

     Smooth grid:    11627 G-vectors     FFT dimensions: (  45,  45,  45)

     Dynamical RAM for                 wfc:       0.67 MB

     Dynamical RAM for     wfc (w. buffer):       0.67 MB

     Dynamical RAM for           str. fact:       2.78 MB

     Dynamical RAM for           local pot:       0.00 MB

     Dynamical RAM for          nlocal pot:       1.38 MB

     Dynamical RAM for                qrad:       5.90 MB

     Dynamical RAM for          rho,v,vnew:      24.87 MB

     Dynamical RAM for           G-vectors:       3.57 MB

     Dynamical RAM for          h,s,v(r/c):       0.16 MB

     Dynamical RAM for          <psi|beta>:       0.03 MB

     Dynamical RAM for                 psi:       1.34 MB

     Dynamical RAM for                hpsi:       1.34 MB

     Dynamical RAM for                spsi:       1.34 MB

     Dynamical RAM for      wfcinit/wfcrot:       1.54 MB

     Dynamical RAM for           addusdens:     175.21 MB

     Estimated static dynamical RAM per process >      62.19 MB

     Estimated max dynamical RAM per process >     237.40 MB

     Check: negative core charge=   -0.000010
     Generating pointlists ...
     new r_m :   0.2063 (alat units)  1.6253 (a.u.) for type    1
     new r_m :   0.2063 (alat units)  1.6253 (a.u.) for type    2
     new r_m :   0.2063 (alat units)  1.6253 (a.u.) for type    3

     The potential is recalculated from file :
     ./nio.save/charge-density

     Starting wfcs are   34 randomized atomic wfcs

     Band Structure Calculation
     Davidson diagonalization with overlap

     Computing kpt #:     1  of   378
     total cpu time spent up to now is        3.7 secs

     Computing kpt #:     2  of   378
     total cpu time spent up to now is        5.2 secs

     Computing kpt #:     3  of   378
     total cpu time spent up to now is        6.5 secs

     Computing kpt #:     4  of   378
     total cpu time spent up to now is        7.8 secs

     Computing kpt #:     5  of   378
     total cpu time spent up to now is        9.3 secs

     Computing kpt #:     6  of   378
     total cpu time spent up to now is       10.9 secs

     Computing kpt #:     7  of   378
     total cpu time spent up to now is       12.4 secs

     Computing kpt #:     8  of   378
     total cpu time spent up to now is       13.9 secs

     Computing kpt #:     9  of   378
     total cpu time spent up to now is       15.3 secs

     Computing kpt #:    10  of   378
     total cpu time spent up to now is       16.6 secs

     Computing kpt #:    11  of   378
     total cpu time spent up to now is       18.1 secs

     Computing kpt #:    12  of   378
     total cpu time spent up to now is       19.7 secs

     Computing kpt #:    13  of   378
     total cpu time spent up to now is       21.2 secs

     Computing kpt #:    14  of   378
     total cpu time spent up to now is       22.8 secs

     Computing kpt #:    15  of   378
     total cpu time spent up to now is       24.3 secs

     Computing kpt #:    16  of   378
     total cpu time spent up to now is       25.8 secs

     Computing kpt #:    17  of   378
     total cpu time spent up to now is       27.1 secs

     Computing kpt #:    18  of   378
     total cpu time spent up to now is       28.6 secs

     Computing kpt #:    19  of   378
     total cpu time spent up to now is       29.9 secs

     Computing kpt #:    20  of   378
     total cpu time spent up to now is       31.4 secs

     Computing kpt #:    21  of   378
     total cpu time spent up to now is       32.9 secs

     Computing kpt #:    22  of   378
     total cpu time spent up to now is       34.4 secs

     Computing kpt #:    23  of   378
     total cpu time spent up to now is       36.0 secs

     Computing kpt #:    24  of   378
     total cpu time spent up to now is       37.6 secs

     Computing kpt #:    25  of   378
     total cpu time spent up to now is       39.3 secs

     Computing kpt #:    26  of   378
     total cpu time spent up to now is       40.8 secs

     Computing kpt #:    27  of   378
     total cpu time spent up to now is       42.3 secs

     Computing kpt #:    28  of   378
     total cpu time spent up to now is       44.2 secs

     Computing kpt #:    29  of   378
     total cpu time spent up to now is       45.8 secs

     Computing kpt #:    30  of   378
     total cpu time spent up to now is       47.4 secs

     Computing kpt #:    31  of   378
     total cpu time spent up to now is       49.0 secs

     Computing kpt #:    32  of   378
     total cpu time spent up to now is       50.6 secs

     Computing kpt #:    33  of   378
     total cpu time spent up to now is       52.3 secs

     Computing kpt #:    34  of   378
     total cpu time spent up to now is       53.9 secs

     Computing kpt #:    35  of   378
     total cpu time spent up to now is       55.5 secs

     Computing kpt #:    36  of   378
     total cpu time spent up to now is       57.1 secs

     Computing kpt #:    37  of   378
     total cpu time spent up to now is       58.6 secs

     Computing kpt #:    38  of   378
     total cpu time spent up to now is       60.3 secs

     Computing kpt #:    39  of   378
     total cpu time spent up to now is       61.9 secs

     Computing kpt #:    40  of   378
     total cpu time spent up to now is       63.3 secs

     Computing kpt #:    41  of   378
     total cpu time spent up to now is       64.8 secs

     Computing kpt #:    42  of   378
     total cpu time spent up to now is       66.3 secs

     Computing kpt #:    43  of   378
     total cpu time spent up to now is       67.7 secs

     Computing kpt #:    44  of   378
     total cpu time spent up to now is       69.0 secs

     Computing kpt #:    45  of   378
     total cpu time spent up to now is       70.5 secs

     Computing kpt #:    46  of   378
     total cpu time spent up to now is       71.9 secs

     Computing kpt #:    47  of   378
     total cpu time spent up to now is       73.3 secs

     Computing kpt #:    48  of   378
     total cpu time spent up to now is       74.9 secs

     Computing kpt #:    49  of   378
     total cpu time spent up to now is       76.4 secs

     Computing kpt #:    50  of   378
     total cpu time spent up to now is       78.0 secs

     Computing kpt #:    51  of   378
     total cpu time spent up to now is       79.7 secs

     Computing kpt #:    52  of   378
     total cpu time spent up to now is       81.2 secs

     Computing kpt #:    53  of   378
     total cpu time spent up to now is       82.7 secs

     Computing kpt #:    54  of   378
     total cpu time spent up to now is       84.2 secs

     Computing kpt #:    55  of   378
     total cpu time spent up to now is       85.7 secs

     Computing kpt #:    56  of   378
     total cpu time spent up to now is       87.2 secs

     Computing kpt #:    57  of   378
     total cpu time spent up to now is       88.7 secs

     Computing kpt #:    58  of   378
     total cpu time spent up to now is       90.3 secs

     Computing kpt #:    59  of   378
     total cpu time spent up to now is       91.9 secs

     Computing kpt #:    60  of   378
     total cpu time spent up to now is       93.4 secs

     Computing kpt #:    61  of   378
     total cpu time spent up to now is       95.0 secs

     Computing kpt #:    62  of   378
     total cpu time spent up to now is       96.6 secs

     Computing kpt #:    63  of   378
     total cpu time spent up to now is       98.2 secs

     Computing kpt #:    64  of   378
     total cpu time spent up to now is       99.8 secs

     Computing kpt #:    65  of   378
     total cpu time spent up to now is      101.3 secs

     Computing kpt #:    66  of   378
     total cpu time spent up to now is      102.8 secs

     Computing kpt #:    67  of   378
     total cpu time spent up to now is      104.3 secs

     Computing kpt #:    68  of   378
     total cpu time spent up to now is      105.9 secs

     Computing kpt #:    69  of   378
     total cpu time spent up to now is      107.5 secs

     Computing kpt #:    70  of   378
     total cpu time spent up to now is      109.0 secs

     Computing kpt #:    71  of   378
     total cpu time spent up to now is      110.6 secs

     Computing kpt #:    72  of   378
     total cpu time spent up to now is      112.2 secs

     Computing kpt #:    73  of   378
     total cpu time spent up to now is      113.7 secs

     Computing kpt #:    74  of   378
     total cpu time spent up to now is      115.2 secs

     Computing kpt #:    75  of   378
     total cpu time spent up to now is      116.8 secs

     Computing kpt #:    76  of   378
     total cpu time spent up to now is      118.4 secs

     Computing kpt #:    77  of   378
     total cpu time spent up to now is      120.0 secs

     Computing kpt #:    78  of   378
     total cpu time spent up to now is      121.6 secs

     Computing kpt #:    79  of   378
     total cpu time spent up to now is      123.3 secs

     Computing kpt #:    80  of   378
     total cpu time spent up to now is      125.0 secs

     Computing kpt #:    81  of   378
     total cpu time spent up to now is      126.6 secs

     Computing kpt #:    82  of   378
     total cpu time spent up to now is      128.1 secs

     Computing kpt #:    83  of   378
     total cpu time spent up to now is      129.7 secs

     Computing kpt #:    84  of   378
     total cpu time spent up to now is      131.2 secs

     Computing kpt #:    85  of   378
     total cpu time spent up to now is      132.8 secs

     Computing kpt #:    86  of   378
     total cpu time spent up to now is      134.4 secs

     Computing kpt #:    87  of   378
     total cpu time spent up to now is      136.0 secs

     Computing kpt #:    88  of   378
     total cpu time spent up to now is      137.7 secs

     Computing kpt #:    89  of   378
     total cpu time spent up to now is      139.2 secs

     Computing kpt #:    90  of   378
     total cpu time spent up to now is      140.8 secs

     Computing kpt #:    91  of   378
     total cpu time spent up to now is      142.5 secs

     Computing kpt #:    92  of   378
     total cpu time spent up to now is      144.2 secs

     Computing kpt #:    93  of   378
     total cpu time spent up to now is      145.8 secs

     Computing kpt #:    94  of   378
     total cpu time spent up to now is      147.5 secs

     Computing kpt #:    95  of   378
     total cpu time spent up to now is      149.0 secs

     Computing kpt #:    96  of   378
     total cpu time spent up to now is      150.3 secs

     Computing kpt #:    97  of   378
     total cpu time spent up to now is      152.0 secs

     Computing kpt #:    98  of   378
     total cpu time spent up to now is      153.6 secs

     Computing kpt #:    99  of   378
     total cpu time spent up to now is      155.1 secs

     Computing kpt #:   100  of   378
     total cpu time spent up to now is      156.7 secs

     Computing kpt #:   101  of   378
     total cpu time spent up to now is      158.3 secs

     Computing kpt #:   102  of   378
     total cpu time spent up to now is      159.9 secs

     Computing kpt #:   103  of   378
     total cpu time spent up to now is      161.5 secs

     Computing kpt #:   104  of   378
     total cpu time spent up to now is      163.0 secs

     Computing kpt #:   105  of   378
     total cpu time spent up to now is      164.5 secs

     Computing kpt #:   106  of   378
     total cpu time spent up to now is      166.0 secs

     Computing kpt #:   107  of   378
     total cpu time spent up to now is      167.4 secs

     Computing kpt #:   108  of   378
     total cpu time spent up to now is      168.8 secs

     Computing kpt #:   109  of   378
     total cpu time spent up to now is      170.3 secs

     Computing kpt #:   110  of   378
     total cpu time spent up to now is      171.8 secs

     Computing kpt #:   111  of   378
     total cpu time spent up to now is      173.5 secs

     Computing kpt #:   112  of   378
     total cpu time spent up to now is      175.1 secs

     Computing kpt #:   113  of   378
     total cpu time spent up to now is      176.7 secs

     Computing kpt #:   114  of   378
     total cpu time spent up to now is      178.2 secs

     Computing kpt #:   115  of   378
     total cpu time spent up to now is      179.7 secs

     Computing kpt #:   116  of   378
     total cpu time spent up to now is      181.3 secs

     Computing kpt #:   117  of   378
     total cpu time spent up to now is      182.8 secs

     Computing kpt #:   118  of   378
     total cpu time spent up to now is      184.4 secs

     Computing kpt #:   119  of   378
     total cpu time spent up to now is      185.9 secs

     Computing kpt #:   120  of   378
     total cpu time spent up to now is      187.5 secs

     Computing kpt #:   121  of   378
     total cpu time spent up to now is      189.1 secs

     Computing kpt #:   122  of   378
     total cpu time spent up to now is      190.6 secs

     Computing kpt #:   123  of   378
     total cpu time spent up to now is      192.1 secs

     Computing kpt #:   124  of   378
     total cpu time spent up to now is      193.7 secs

     Computing kpt #:   125  of   378
     total cpu time spent up to now is      195.4 secs

     Computing kpt #:   126  of   378
     total cpu time spent up to now is      196.9 secs

     Computing kpt #:   127  of   378
     total cpu time spent up to now is      198.5 secs

     Computing kpt #:   128  of   378
     total cpu time spent up to now is      200.2 secs

     Computing kpt #:   129  of   378
     total cpu time spent up to now is      201.8 secs

     Computing kpt #:   130  of   378
     total cpu time spent up to now is      203.3 secs

     Computing kpt #:   131  of   378
     total cpu time spent up to now is      204.9 secs

     Computing kpt #:   132  of   378
     total cpu time spent up to now is      206.4 secs

     Computing kpt #:   133  of   378
     total cpu time spent up to now is      208.0 secs

     Computing kpt #:   134  of   378
     total cpu time spent up to now is      209.6 secs

     Computing kpt #:   135  of   378
     total cpu time spent up to now is      211.2 secs

     Computing kpt #:   136  of   378
     total cpu time spent up to now is      212.7 secs

     Computing kpt #:   137  of   378
     total cpu time spent up to now is      214.3 secs

     Computing kpt #:   138  of   378
     total cpu time spent up to now is      215.9 secs

     Computing kpt #:   139  of   378
     total cpu time spent up to now is      217.4 secs

     Computing kpt #:   140  of   378
     total cpu time spent up to now is      218.9 secs

     Computing kpt #:   141  of   378
     total cpu time spent up to now is      220.4 secs

     Computing kpt #:   142  of   378
     total cpu time spent up to now is      221.9 secs

     Computing kpt #:   143  of   378
     total cpu time spent up to now is      223.4 secs

     Computing kpt #:   144  of   378
     total cpu time spent up to now is      224.9 secs

     Computing kpt #:   145  of   378
     total cpu time spent up to now is      226.4 secs

     Computing kpt #:   146  of   378
     total cpu time spent up to now is      227.9 secs

     Computing kpt #:   147  of   378
     total cpu time spent up to now is      229.4 secs

     Computing kpt #:   148  of   378
     total cpu time spent up to now is      230.9 secs

     Computing kpt #:   149  of   378
     total cpu time spent up to now is      232.4 secs

     Computing kpt #:   150  of   378
     total cpu time spent up to now is      233.9 secs

     Computing kpt #:   151  of   378
     total cpu time spent up to now is      235.4 secs

     Computing kpt #:   152  of   378
     total cpu time spent up to now is      237.0 secs

     Computing kpt #:   153  of   378
     total cpu time spent up to now is      238.7 secs

     Computing kpt #:   154  of   378
     total cpu time spent up to now is      240.1 secs

     Computing kpt #:   155  of   378
     total cpu time spent up to now is      241.7 secs

     Computing kpt #:   156  of   378
     total cpu time spent up to now is      243.2 secs

     Computing kpt #:   157  of   378
     total cpu time spent up to now is      244.8 secs

     Computing kpt #:   158  of   378
     total cpu time spent up to now is      246.2 secs

     Computing kpt #:   159  of   378
     total cpu time spent up to now is      247.8 secs

     Computing kpt #:   160  of   378
     total cpu time spent up to now is      249.3 secs

     Computing kpt #:   161  of   378
     total cpu time spent up to now is      250.9 secs

     Computing kpt #:   162  of   378
     total cpu time spent up to now is      252.4 secs

     Computing kpt #:   163  of   378
     total cpu time spent up to now is      253.9 secs

     Computing kpt #:   164  of   378
     total cpu time spent up to now is      255.5 secs

     Computing kpt #:   165  of   378
     total cpu time spent up to now is      257.1 secs

     Computing kpt #:   166  of   378
     total cpu time spent up to now is      258.7 secs

     Computing kpt #:   167  of   378
     total cpu time spent up to now is      260.3 secs

     Computing kpt #:   168  of   378
     total cpu time spent up to now is      261.8 secs

     Computing kpt #:   169  of   378
     total cpu time spent up to now is      263.3 secs

     Computing kpt #:   170  of   378
     total cpu time spent up to now is      264.8 secs

     Computing kpt #:   171  of   378
     total cpu time spent up to now is      266.3 secs

     Computing kpt #:   172  of   378
     total cpu time spent up to now is      267.9 secs

     Computing kpt #:   173  of   378
     total cpu time spent up to now is      269.4 secs

     Computing kpt #:   174  of   378
     total cpu time spent up to now is      270.9 secs

     Computing kpt #:   175  of   378
     total cpu time spent up to now is      272.4 secs

     Computing kpt #:   176  of   378
     total cpu time spent up to now is      274.0 secs

     Computing kpt #:   177  of   378
     total cpu time spent up to now is      275.5 secs

     Computing kpt #:   178  of   378
     total cpu time spent up to now is      277.1 secs

     Computing kpt #:   179  of   378
     total cpu time spent up to now is      278.7 secs

     Computing kpt #:   180  of   378
     total cpu time spent up to now is      280.2 secs

     Computing kpt #:   181  of   378
     total cpu time spent up to now is      281.8 secs

     Computing kpt #:   182  of   378
     total cpu time spent up to now is      283.3 secs

     Computing kpt #:   183  of   378
     total cpu time spent up to now is      284.9 secs

     Computing kpt #:   184  of   378
     total cpu time spent up to now is      286.3 secs

     Computing kpt #:   185  of   378
     total cpu time spent up to now is      287.8 secs

     Computing kpt #:   186  of   378
     total cpu time spent up to now is      289.5 secs

     Computing kpt #:   187  of   378
     total cpu time spent up to now is      290.9 secs

     Computing kpt #:   188  of   378
     total cpu time spent up to now is      292.5 secs

     Computing kpt #:   189  of   378
     total cpu time spent up to now is      293.7 secs

     Computing kpt #:   190  of   378
     total cpu time spent up to now is      295.0 secs

     Computing kpt #:   191  of   378
     total cpu time spent up to now is      296.4 secs

     Computing kpt #:   192  of   378
     total cpu time spent up to now is      297.9 secs

     Computing kpt #:   193  of   378
     total cpu time spent up to now is      299.4 secs

     Computing kpt #:   194  of   378
     total cpu time spent up to now is      300.9 secs

     Computing kpt #:   195  of   378
     total cpu time spent up to now is      302.5 secs

     Computing kpt #:   196  of   378
     total cpu time spent up to now is      304.0 secs

     Computing kpt #:   197  of   378
     total cpu time spent up to now is      305.5 secs

     Computing kpt #:   198  of   378
     total cpu time spent up to now is      307.0 secs

     Computing kpt #:   199  of   378
     total cpu time spent up to now is      308.3 secs

     Computing kpt #:   200  of   378
     total cpu time spent up to now is      309.8 secs

     Computing kpt #:   201  of   378
     total cpu time spent up to now is      311.3 secs

     Computing kpt #:   202  of   378
     total cpu time spent up to now is      313.0 secs

     Computing kpt #:   203  of   378
     total cpu time spent up to now is      314.6 secs

     Computing kpt #:   204  of   378
     total cpu time spent up to now is      316.1 secs

     Computing kpt #:   205  of   378
     total cpu time spent up to now is      317.7 secs

     Computing kpt #:   206  of   378
     total cpu time spent up to now is      319.1 secs

     Computing kpt #:   207  of   378
     total cpu time spent up to now is      320.5 secs

     Computing kpt #:   208  of   378
     total cpu time spent up to now is      322.0 secs

     Computing kpt #:   209  of   378
     total cpu time spent up to now is      323.5 secs

     Computing kpt #:   210  of   378
     total cpu time spent up to now is      325.0 secs

     Computing kpt #:   211  of   378
     total cpu time spent up to now is      326.6 secs

     Computing kpt #:   212  of   378
     total cpu time spent up to now is      328.2 secs

     Computing kpt #:   213  of   378
     total cpu time spent up to now is      329.8 secs

     Computing kpt #:   214  of   378
     total cpu time spent up to now is      331.5 secs

     Computing kpt #:   215  of   378
     total cpu time spent up to now is      333.0 secs

     Computing kpt #:   216  of   378
     total cpu time spent up to now is      334.5 secs

     Computing kpt #:   217  of   378
     total cpu time spent up to now is      336.0 secs

     Computing kpt #:   218  of   378
     total cpu time spent up to now is      337.5 secs

     Computing kpt #:   219  of   378
     total cpu time spent up to now is      339.1 secs

     Computing kpt #:   220  of   378
     total cpu time spent up to now is      340.7 secs

     Computing kpt #:   221  of   378
     total cpu time spent up to now is      342.3 secs

     Computing kpt #:   222  of   378
     total cpu time spent up to now is      344.1 secs

     Computing kpt #:   223  of   378
     total cpu time spent up to now is      345.9 secs

     Computing kpt #:   224  of   378
     total cpu time spent up to now is      347.4 secs

     Computing kpt #:   225  of   378
     total cpu time spent up to now is      348.9 secs

     Computing kpt #:   226  of   378
     total cpu time spent up to now is      350.5 secs

     Computing kpt #:   227  of   378
     total cpu time spent up to now is      352.1 secs

     Computing kpt #:   228  of   378
     total cpu time spent up to now is      353.7 secs

     Computing kpt #:   229  of   378
     total cpu time spent up to now is      355.2 secs

     Computing kpt #:   230  of   378
     total cpu time spent up to now is      356.7 secs

     Computing kpt #:   231  of   378
     total cpu time spent up to now is      358.2 secs

     Computing kpt #:   232  of   378
     total cpu time spent up to now is      359.7 secs

     Computing kpt #:   233  of   378
     total cpu time spent up to now is      360.9 secs

     Computing kpt #:   234  of   378
     total cpu time spent up to now is      362.4 secs

     Computing kpt #:   235  of   378
     total cpu time spent up to now is      363.9 secs

     Computing kpt #:   236  of   378
     total cpu time spent up to now is      365.2 secs

     Computing kpt #:   237  of   378
     total cpu time spent up to now is      366.7 secs

     Computing kpt #:   238  of   378
     total cpu time spent up to now is      368.2 secs

     Computing kpt #:   239  of   378
     total cpu time spent up to now is      369.8 secs

     Computing kpt #:   240  of   378
     total cpu time spent up to now is      371.3 secs

     Computing kpt #:   241  of   378
     total cpu time spent up to now is      372.8 secs

     Computing kpt #:   242  of   378
     total cpu time spent up to now is      374.3 secs

     Computing kpt #:   243  of   378
     total cpu time spent up to now is      375.6 secs

     Computing kpt #:   244  of   378
     total cpu time spent up to now is      377.1 secs

     Computing kpt #:   245  of   378
     total cpu time spent up to now is      378.5 secs

     Computing kpt #:   246  of   378
     total cpu time spent up to now is      379.9 secs

     Computing kpt #:   247  of   378
     total cpu time spent up to now is      381.3 secs

     Computing kpt #:   248  of   378
     total cpu time spent up to now is      383.0 secs

     Computing kpt #:   249  of   378
     total cpu time spent up to now is      384.6 secs

     Computing kpt #:   250  of   378
     total cpu time spent up to now is      386.1 secs

     Computing kpt #:   251  of   378
     total cpu time spent up to now is      387.8 secs

     Computing kpt #:   252  of   378
     total cpu time spent up to now is      389.3 secs

     Computing kpt #:   253  of   378
     total cpu time spent up to now is      390.8 secs

     Computing kpt #:   254  of   378
     total cpu time spent up to now is      392.2 secs

     Computing kpt #:   255  of   378
     total cpu time spent up to now is      393.7 secs

     Computing kpt #:   256  of   378
     total cpu time spent up to now is      395.3 secs

     Computing kpt #:   257  of   378
     total cpu time spent up to now is      396.9 secs

     Computing kpt #:   258  of   378
     total cpu time spent up to now is      398.4 secs

     Computing kpt #:   259  of   378
     total cpu time spent up to now is      400.0 secs

     Computing kpt #:   260  of   378
     total cpu time spent up to now is      401.6 secs

     Computing kpt #:   261  of   378
     total cpu time spent up to now is      403.2 secs

     Computing kpt #:   262  of   378
     total cpu time spent up to now is      404.7 secs

     Computing kpt #:   263  of   378
     total cpu time spent up to now is      406.2 secs

     Computing kpt #:   264  of   378
     total cpu time spent up to now is      407.8 secs

     Computing kpt #:   265  of   378
     total cpu time spent up to now is      409.3 secs

     Computing kpt #:   266  of   378
     total cpu time spent up to now is      411.0 secs

     Computing kpt #:   267  of   378
     total cpu time spent up to now is      412.6 secs

     Computing kpt #:   268  of   378
     total cpu time spent up to now is      414.2 secs

     Computing kpt #:   269  of   378
     total cpu time spent up to now is      416.0 secs

     Computing kpt #:   270  of   378
     total cpu time spent up to now is      417.5 secs

     Computing kpt #:   271  of   378
     total cpu time spent up to now is      419.0 secs

     Computing kpt #:   272  of   378
     total cpu time spent up to now is      420.3 secs

     Computing kpt #:   273  of   378
     total cpu time spent up to now is      421.8 secs

     Computing kpt #:   274  of   378
     total cpu time spent up to now is      423.4 secs

     Computing kpt #:   275  of   378
     total cpu time spent up to now is      425.0 secs

     Computing kpt #:   276  of   378
     total cpu time spent up to now is      426.6 secs

     Computing kpt #:   277  of   378
     total cpu time spent up to now is      428.2 secs

     Computing kpt #:   278  of   378
     total cpu time spent up to now is      429.7 secs

     Computing kpt #:   279  of   378
     total cpu time spent up to now is      431.3 secs

     Computing kpt #:   280  of   378
     total cpu time spent up to now is      432.8 secs

     Computing kpt #:   281  of   378
     total cpu time spent up to now is      434.4 secs

     Computing kpt #:   282  of   378
     total cpu time spent up to now is      436.1 secs

     Computing kpt #:   283  of   378
     total cpu time spent up to now is      437.7 secs

     Computing kpt #:   284  of   378
     total cpu time spent up to now is      439.2 secs

     Computing kpt #:   285  of   378
     total cpu time spent up to now is      440.7 secs

     Computing kpt #:   286  of   378
     total cpu time spent up to now is      442.2 secs

     Computing kpt #:   287  of   378
     total cpu time spent up to now is      443.9 secs

     Computing kpt #:   288  of   378
     total cpu time spent up to now is      445.3 secs

     Computing kpt #:   289  of   378
     total cpu time spent up to now is      446.9 secs

     Computing kpt #:   290  of   378
     total cpu time spent up to now is      448.5 secs

     Computing kpt #:   291  of   378
     total cpu time spent up to now is      450.1 secs

     Computing kpt #:   292  of   378
     total cpu time spent up to now is      451.6 secs

     Computing kpt #:   293  of   378
     total cpu time spent up to now is      453.1 secs

     Computing kpt #:   294  of   378
     total cpu time spent up to now is      454.5 secs

     Computing kpt #:   295  of   378
     total cpu time spent up to now is      456.0 secs

     Computing kpt #:   296  of   378
     total cpu time spent up to now is      457.4 secs

     Computing kpt #:   297  of   378
     total cpu time spent up to now is      458.9 secs

     Computing kpt #:   298  of   378
     total cpu time spent up to now is      460.5 secs

     Computing kpt #:   299  of   378
     total cpu time spent up to now is      462.1 secs

     Computing kpt #:   300  of   378
     total cpu time spent up to now is      463.6 secs

     Computing kpt #:   301  of   378
     total cpu time spent up to now is      465.2 secs

     Computing kpt #:   302  of   378
     total cpu time spent up to now is      466.8 secs

     Computing kpt #:   303  of   378
     total cpu time spent up to now is      468.3 secs

     Computing kpt #:   304  of   378
     total cpu time spent up to now is      469.7 secs

     Computing kpt #:   305  of   378
     total cpu time spent up to now is      471.2 secs

     Computing kpt #:   306  of   378
     total cpu time spent up to now is      472.7 secs

     Computing kpt #:   307  of   378
     total cpu time spent up to now is      474.3 secs

     Computing kpt #:   308  of   378
     total cpu time spent up to now is      475.8 secs

     Computing kpt #:   309  of   378
     total cpu time spent up to now is      477.4 secs

     Computing kpt #:   310  of   378
     total cpu time spent up to now is      479.0 secs

     Computing kpt #:   311  of   378
     total cpu time spent up to now is      480.5 secs

     Computing kpt #:   312  of   378
     total cpu time spent up to now is      482.0 secs

     Computing kpt #:   313  of   378
     total cpu time spent up to now is      483.6 secs

     Computing kpt #:   314  of   378
     total cpu time spent up to now is      485.1 secs

     Computing kpt #:   315  of   378
     total cpu time spent up to now is      486.7 secs

     Computing kpt #:   316  of   378
     total cpu time spent up to now is      488.2 secs

     Computing kpt #:   317  of   378
     total cpu time spent up to now is      489.8 secs

     Computing kpt #:   318  of   378
     total cpu time spent up to now is      491.4 secs

     Computing kpt #:   319  of   378
     total cpu time spent up to now is      492.8 secs

     Computing kpt #:   320  of   378
     total cpu time spent up to now is      494.4 secs

     Computing kpt #:   321  of   378
     total cpu time spent up to now is      496.0 secs

     Computing kpt #:   322  of   378
     total cpu time spent up to now is      497.5 secs

     Computing kpt #:   323  of   378
     total cpu time spent up to now is      499.2 secs

     Computing kpt #:   324  of   378
     total cpu time spent up to now is      500.7 secs

     Computing kpt #:   325  of   378
     total cpu time spent up to now is      502.2 secs

     Computing kpt #:   326  of   378
     total cpu time spent up to now is      503.8 secs

     Computing kpt #:   327  of   378
     total cpu time spent up to now is      505.3 secs

     Computing kpt #:   328  of   378
     total cpu time spent up to now is      506.9 secs

     Computing kpt #:   329  of   378
     total cpu time spent up to now is      508.4 secs

     Computing kpt #:   330  of   378
     total cpu time spent up to now is      509.9 secs

     Computing kpt #:   331  of   378
     total cpu time spent up to now is      511.4 secs

     Computing kpt #:   332  of   378
     total cpu time spent up to now is      512.9 secs

     Computing kpt #:   333  of   378
     total cpu time spent up to now is      514.4 secs

     Computing kpt #:   334  of   378
     total cpu time spent up to now is      515.9 secs

     Computing kpt #:   335  of   378
     total cpu time spent up to now is      517.4 secs

     Computing kpt #:   336  of   378
     total cpu time spent up to now is      518.9 secs

     Computing kpt #:   337  of   378
     total cpu time spent up to now is      520.4 secs

     Computing kpt #:   338  of   378
     total cpu time spent up to now is      521.9 secs

     Computing kpt #:   339  of   378
     total cpu time spent up to now is      523.4 secs

     Computing kpt #:   340  of   378
     total cpu time spent up to now is      525.0 secs

     Computing kpt #:   341  of   378
     total cpu time spent up to now is      526.5 secs

     Computing kpt #:   342  of   378
     total cpu time spent up to now is      528.2 secs

     Computing kpt #:   343  of   378
     total cpu time spent up to now is      529.7 secs

     Computing kpt #:   344  of   378
     total cpu time spent up to now is      531.2 secs

     Computing kpt #:   345  of   378
     total cpu time spent up to now is      532.8 secs

     Computing kpt #:   346  of   378
     total cpu time spent up to now is      534.5 secs

     Computing kpt #:   347  of   378
     total cpu time spent up to now is      536.0 secs

     Computing kpt #:   348  of   378
     total cpu time spent up to now is      537.6 secs

     Computing kpt #:   349  of   378
     total cpu time spent up to now is      539.2 secs

     Computing kpt #:   350  of   378
     total cpu time spent up to now is      540.7 secs

     Computing kpt #:   351  of   378
     total cpu time spent up to now is      542.3 secs

     Computing kpt #:   352  of   378
     total cpu time spent up to now is      543.8 secs

     Computing kpt #:   353  of   378
     total cpu time spent up to now is      545.3 secs

     Computing kpt #:   354  of   378
     total cpu time spent up to now is      546.8 secs

     Computing kpt #:   355  of   378
     total cpu time spent up to now is      548.4 secs

     Computing kpt #:   356  of   378
     total cpu time spent up to now is      550.0 secs

     Computing kpt #:   357  of   378
     total cpu time spent up to now is      551.5 secs

     Computing kpt #:   358  of   378
     total cpu time spent up to now is      553.0 secs

     Computing kpt #:   359  of   378
     total cpu time spent up to now is      554.5 secs

     Computing kpt #:   360  of   378
     total cpu time spent up to now is      556.0 secs

     Computing kpt #:   361  of   378
     total cpu time spent up to now is      557.5 secs

     Computing kpt #:   362  of   378
     total cpu time spent up to now is      559.0 secs

     Computing kpt #:   363  of   378
     total cpu time spent up to now is      560.6 secs

     Computing kpt #:   364  of   378
     total cpu time spent up to now is      562.1 secs

     Computing kpt #:   365  of   378
     total cpu time spent up to now is      563.7 secs

     Computing kpt #:   366  of   378
     total cpu time spent up to now is      565.2 secs

     Computing kpt #:   367  of   378
     total cpu time spent up to now is      566.8 secs

     Computing kpt #:   368  of   378
     total cpu time spent up to now is      568.3 secs

     Computing kpt #:   369  of   378
     total cpu time spent up to now is      570.0 secs

     Computing kpt #:   370  of   378
     total cpu time spent up to now is      571.5 secs

     Computing kpt #:   371  of   378
     total cpu time spent up to now is      573.2 secs

     Computing kpt #:   372  of   378
     total cpu time spent up to now is      574.7 secs

     Computing kpt #:   373  of   378
     total cpu time spent up to now is      576.2 secs

     Computing kpt #:   374  of   378
     total cpu time spent up to now is      577.7 secs

     Computing kpt #:   375  of   378
     total cpu time spent up to now is      579.2 secs

     Computing kpt #:   376  of   378
     total cpu time spent up to now is      580.7 secs

     Computing kpt #:   377  of   378
     total cpu time spent up to now is      582.2 secs

     Computing kpt #:   378  of   378
     total cpu time spent up to now is      583.5 secs

     ethr =  2.08E-13,  avg # of iterations = 27.3

     total cpu time spent up to now is      583.7 secs

     End of band structure calculation

 ------ SPIN UP ------------


          k = 0.0000 0.0000 0.0000 (  1443 PWs)   bands (ev):

   -89.9957 -88.1302 -50.3999 -50.3681 -50.3681 -48.5866 -48.5671 -48.5671
    -5.9409  -4.5205   6.1753   8.8341   8.8341  11.4355  11.4355  11.4427
    11.9258  11.9258  12.0188  12.3696  12.3696  13.3101  13.3101  13.5827
    15.8573  15.8573  16.0250  20.0018  24.5266  28.4938

     occupation numbers 
     1.0000   1.0000   1.0000   1.0000   1.0000   1.0000   1.0000   1.0000
     1.0000   1.0000   1.0000   1.0000   1.0000   1.0000   1.0000   1.0000
     1.0000   1.0000   1.0000   1.0000   1.0000   1.0000   1.0000   1.0000
     0.0000   0.0000   0.0000   0.0000   0.0000   0.0000

          k = 0.1250-0.0417-0.0417 (  1464 PWs)   bands (ev):

   -89.9956 -88.1301 -50.3997 -50.3697 -50.3685 -48.5864 -48.5688 -48.5675
    -5.8668  -4.5089   6.3000   8.7916   8.8547  10.6576  11.1060  11.1076
    11.9683  12.1673  12.1946  12.4423  12.7703  13.3469  13.3537  13.5719
    15.5979  15.8091  16.5049  20.4458  24.4256  27.8878

     occupation numbers 
     1.0000   1.0000   1.0000   1.0000   1.0000   1.0000   1.0000   1.0000
     1.0000   1.0000   1.0000   1.0000   1.0000   1.0000   1.0000   1.0000
     1.0000   1.0000   1.0000   1.0000   1.0000   1.0000   1.0000   1.0000
     0.0000   0.0000   0.0000   0.0000   0.0000   0.0000

          k = 0.2500-0.0833-0.0833 (  1461 PWs)   bands (ev):

   -89.9953 -88.1297 -50.3991 -50.3740 -50.3696 -48.5858 -48.5736 -48.5687
    -5.6574  -4.4761   6.6463   8.6487   8.9089   9.5107  10.5488  10.6322
    11.9401  12.3454  12.3990  12.6712  13.0516  13.4278  13.4745  13.6192
    15.1547  15.6849  17.6450  21.4877  24.1579  26.6889

     occupation numbers 
     1.0000   1.0000   1.0000   1.0000   1.0000   1.0000   1.0000   1.0000
     1.0000   1.0000   1.0000   1.0000   1.0000   1.0000   1.0000   1.0000
     1.0000   1.0000   1.0000   1.0000   1.0000   1.0000   1.0000   1.0000
     0.0000   0.0000   0.0000   0.0000   0.0000   0.0000

          k = 0.3750-0.1250-0.1250 (  1452 PWs)   bands (ev):

   -89.9948 -88.1292 -50.3982 -50.3798 -50.3711 -48.5849 -48.5801 -48.5704
    -5.3517  -4.4307   7.1273   8.3586   8.5079   8.9771   9.9836  10.2111
    11.9013  12.4298  12.5669  12.9104  13.0695  13.3662  13.6601  13.6916
    15.0268  15.5300  18.9720  22.7045  23.7923  25.5775

     occupation numbers 
     1.0000   1.0000   1.0000   1.0000   1.0000   1.0000   1.0000   1.0000
     1.0000   1.0000   1.0000   1.0000   1.0000   1.0000   1.0000   1.0000
     1.0000   1.0000   1.0000   1.0000   1.0000   1.0000   1.0000   1.0000
     0.0000   0.0000   0.0000   0.0000   0.0000   0.0000

          k = 0.5000-0.1667-0.1667 (  1461 PWs)   bands (ev):

   -89.9943 -88.1287 -50.3974 -50.3856 -50.3726 -48.5867 -48.5840 -48.5720
[...]
     1.0000   1.0000   1.0000   1.0000   1.0000   1.0000   1.0000   1.0000
     1.0000   1.0000   1.0000   1.0000   1.0000   1.0000   1.0000   1.0000
     0.0000   0.0000   0.0000   0.0000   0.0000   0.0000

          k =-0.6250-0.6250 0.8750 (  1463 PWs)   bands (ev):

   -89.9948 -88.1292 -50.3982 -50.3798 -50.3711 -48.5849 -48.5801 -48.5704
    -5.0144  -4.8097   7.4437   7.6534   9.1760   9.4020   9.6858   9.9546
    11.7157  12.3624  12.4995  12.9206  13.1161  13.3723  13.7035  13.7046
    14.9712  15.6272  19.8686  20.9639  25.6878  25.9507

     occupation numbers 
     1.0000   1.0000   1.0000   1.0000   1.0000   1.0000   1.0000   1.0000
     1.0000   1.0000   1.0000   1.0000   1.0000   1.0000   1.0000   1.0000
     1.0000   1.0000   1.0000   1.0000   1.0000   1.0000   1.0000   1.0000
     0.0000   0.0000   0.0000   0.0000   0.0000   0.0000

          k =-0.5000-0.6667 0.8333 (  1461 PWs)   bands (ev):

   -89.9945 -88.1289 -50.3977 -50.3830 -50.3725 -48.5844 -48.5836 -48.5720
    -4.8302  -4.7392   7.2345   7.4578   9.0475   9.2894   9.7539   9.8151
    11.7307  12.3147  12.6002  12.7830  13.1624  13.4942  13.6322  13.8104
    15.0624  15.5909  20.5014  21.1339  25.3049  25.5144

     occupation numbers 
     1.0000   1.0000   1.0000   1.0000   1.0000   1.0000   1.0000   1.0000
     1.0000   1.0000   1.0000   1.0000   1.0000   1.0000   1.0000   1.0000
     1.0000   1.0000   1.0000   1.0000   1.0000   1.0000   1.0000   1.0000
     0.0000   0.0000   0.0000   0.0000   0.0000   0.0000

          k =-0.3750-0.7083 0.7917 (  1463 PWs)   bands (ev):

   -89.9942 -88.1285 -50.3971 -50.3856 -50.3752 -48.5866 -48.5837 -48.5750
    -4.6459  -4.6208   7.0897   7.3653   8.8535   9.1029   9.3507   9.7365
    11.9141  12.2312  12.6360  12.9354  13.2636  13.6036  13.6783  13.8426
    15.1998  15.3565  21.2934  21.4922  24.6921  24.9682

     occupation numbers 
     1.0000   1.0000   1.0000   1.0000   1.0000   1.0000   1.0000   1.0000
     1.0000   1.0000   1.0000   1.0000   1.0000   1.0000   1.0000   1.0000
     1.0000   1.0000   1.0000   1.0000   1.0000   1.0000   1.0000   1.0000
     0.0000   0.0000   0.0000   0.0000   0.0000   0.0000

          k =-0.2500-0.7500 0.7500 (  1448 PWs)   bands (ev):

   -89.9939 -88.1282 -50.3966 -50.3871 -50.3784 -48.5882 -48.5831 -48.5785
    -4.5023  -4.4961   7.2068   7.2251   8.5810   8.6996   9.2646   9.5051
    12.1310  12.2440  12.6168  13.0599  13.3462  13.7160  13.7316  13.7730
    15.2715  15.2781  21.9355  22.0436  24.2031  24.3142

     occupation numbers 
     1.0000   1.0000   1.0000   1.0000   1.0000   1.0000   1.0000   1.0000
     1.0000   1.0000   1.0000   1.0000   1.0000   1.0000   1.0000   1.0000
     1.0000   1.0000   1.0000   1.0000   1.0000   1.0000   1.0000   1.0000
     0.0000   0.0000   0.0000   0.0000   0.0000   0.0000

          k =-0.5417-0.5417 0.7917 (  1461 PWs)   bands (ev):

   -89.9943 -88.1287 -50.3974 -50.3856 -50.3726 -48.5866 -48.5840 -48.5720
    -4.7125  -4.7033   6.8919   7.4285   8.9652   9.0659  10.0647  10.1219
    11.3667  12.4755  12.5515  12.7418  13.1027  13.4705  13.6695  13.7860
    15.1349  15.8386  20.6008  20.9876  24.8534  25.3668

     occupation numbers 
     1.0000   1.0000   1.0000   1.0000   1.0000   1.0000   1.0000   1.0000
     1.0000   1.0000   1.0000   1.0000   1.0000   1.0000   1.0000   1.0000
     1.0000   1.0000   1.0000   1.0000   1.0000   1.0000   1.0000   1.0000
     0.0000   0.0000   0.0000   0.0000   0.0000   0.0000

          k =-0.4167-0.5833 0.7500 (  1459 PWs)   bands (ev):

   -89.9941 -88.1284 -50.3970 -50.3878 -50.3740 -48.5890 -48.5836 -48.5737
    -4.6294  -4.5759   6.7155   7.4075   8.8007   9.0272   9.7742  10.0232
    11.4977  12.4389  12.5978  12.8925  13.1172  13.5326  13.6618  13.8232
    15.2826  15.7060  21.0402  21.1188  24.4639  25.1448

     occupation numbers 
     1.0000   1.0000   1.0000   1.0000   1.0000   1.0000   1.0000   1.0000
     1.0000   1.0000   1.0000   1.0000   1.0000   1.0000   1.0000   1.0000
     1.0000   1.0000   1.0000   1.0000   1.0000   1.0000   1.0000   1.0000
     0.0000   0.0000   0.0000   0.0000   0.0000   0.0000

          k =-0.4583-0.4583 0.7083 (  1466 PWs)   bands (ev):

   -89.9940 -88.1283 -50.3968 -50.3899 -50.3736 -48.5914 -48.5834 -48.5732
    -4.5898  -4.5132   6.4843   7.4053   8.8162   8.8769  10.0266  10.1032
    11.2895  12.4422  12.6494  12.8988  13.0556  13.4741  13.6898  13.8319
    15.4276  15.8318  20.9018  20.9634  24.3520  25.0927

     occupation numbers 
     1.0000   1.0000   1.0000   1.0000   1.0000   1.0000   1.0000   1.0000
     1.0000   1.0000   1.0000   1.0000   1.0000   1.0000   1.0000   1.0000
     1.0000   1.0000   1.0000   1.0000   1.0000   1.0000   1.0000   1.0000
     0.0000   0.0000   0.0000   0.0000   0.0000   0.0000

          k = 0.1667 0.1667 0.1667 (  1463 PWs)   bands (ev):

   -89.9957 -88.1302 -50.3998 -50.3681 -50.3681 -48.5867 -48.5671 -48.5671
    -5.6307  -4.9283   7.1822   9.1574   9.1574   9.5294  10.3870  10.3870
    12.0059  12.0059  12.3617  13.1560  13.1560  13.3554  13.4968  13.4968
    15.4704  15.4704  17.6102  19.5927  25.3194  28.4674

     occupation numbers 
     1.0000   1.0000   1.0000   1.0000   1.0000   1.0000   1.0000   1.0000
     1.0000   1.0000   1.0000   1.0000   1.0000   1.0000   1.0000   1.0000
     1.0000   1.0000   1.0000   1.0000   1.0000   1.0000   1.0000   1.0000
     0.0000   0.0000   0.0000   0.0000   0.0000   0.0000

          k = 0.2917 0.1250 0.1250 (  1470 PWs)   bands (ev):

   -89.9956 -88.1301 -50.3996 -50.3697 -50.3685 -48.5865 -48.5688 -48.5675
    -5.5215  -4.9498   7.3513   8.9320   9.1309   9.4066  10.1861  10.3959
    11.9472  12.0902  12.4905  13.0262  13.0996  13.3589  13.3738  13.7002
    15.0898  15.6160  18.1982  19.8142  25.5033  28.1367

     occupation numbers 
     1.0000   1.0000   1.0000   1.0000   1.0000   1.0000   1.0000   1.0000
     1.0000   1.0000   1.0000   1.0000   1.0000   1.0000   1.0000   1.0000
     1.0000   1.0000   1.0000   1.0000   1.0000   1.0000   1.0000   1.0000
     0.0000   0.0000   0.0000   0.0000   0.0000   0.0000

          k =-1.0833 0.5833 0.5833 (  1463 PWs)   bands (ev):

   -89.9953 -88.1297 -50.3990 -50.3740 -50.3696 -48.5859 -48.5736 -48.5687
    -5.3129  -4.8931   7.4403   8.3128   9.0912   9.3399  10.1562  10.3285
    11.7852  12.2480  12.6871  12.8002  12.8437  13.4112  13.4773  13.6717
    14.7641  15.7324  19.2743  20.4034  25.7690  27.1941

     occupation numbers 
     1.0000   1.0000   1.0000   1.0000   1.0000   1.0000   1.0000   1.0000
     1.0000   1.0000   1.0000   1.0000   1.0000   1.0000   1.0000   1.0000
     1.0000   1.0000   1.0000   1.0000   1.0000   1.0000   1.0000   1.0000
     0.0000   0.0000   0.0000   0.0000   0.0000   0.0000

          k =-0.9583 0.5417 0.5417 (  1460 PWs)   bands (ev):

   -89.9948 -88.1292 -50.3982 -50.3798 -50.3711 -48.5850 -48.5801 -48.5704
    -5.0514  -4.7699   7.2926   7.7956   9.0212   9.1187  10.2046  10.2499
    11.5558  12.4331  12.5664  12.6542  12.9269  13.4209  13.5930  13.7389
    14.7262  15.8098  20.3012  20.9636  25.6183  26.2833

     occupation numbers 
     1.0000   1.0000   1.0000   1.0000   1.0000   1.0000   1.0000   1.0000
     1.0000   1.0000   1.0000   1.0000   1.0000   1.0000   1.0000   1.0000
     1.0000   1.0000   1.0000   1.0000   1.0000   1.0000   1.0000   1.0000
     0.0000   0.0000   0.0000   0.0000   0.0000   0.0000

          k =-0.8333 0.5000 0.5000 (  1451 PWs)   bands (ev):

   -89.9943 -88.1287 -50.3974 -50.3856 -50.3726 -48.5866 -48.5840 -48.5720
    -4.7935  -4.6210   6.9058   7.4749   8.9264   8.9361  10.1797  10.1863
    11.3477  12.4629  12.5785  12.7234  13.0342  13.4484  13.6602  13.8138
    14.9928  15.8442  20.8858  21.1683  24.6831  25.6452

     occupation numbers 
     1.0000   1.0000   1.0000   1.0000   1.0000   1.0000   1.0000   1.0000
     1.0000   1.0000   1.0000   1.0000   1.0000   1.0000   1.0000   1.0000
     1.0000   1.0000   1.0000   1.0000   1.0000   1.0000   1.0000   1.0000
     0.0000   0.0000   0.0000   0.0000   0.0000   0.0000

          k = 0.2500 0.2500 0.0833 (  1470 PWs)   bands (ev):

   -89.9956 -88.1301 -50.3996 -50.3697 -50.3685 -48.5865 -48.5688 -48.5675
    -5.4688  -5.0099   7.5055   8.8385   9.2830   9.3225  10.0486  10.2479
    12.0224  12.0570  12.5082  13.0680  13.1186  13.2151  13.4606  13.8365
    15.2780  15.3620  18.3246  19.7115  25.6971  27.7793

     occupation numbers 
     1.0000   1.0000   1.0000   1.0000   1.0000   1.0000   1.0000   1.0000
     1.0000   1.0000   1.0000   1.0000   1.0000   1.0000   1.0000   1.0000
     1.0000   1.0000   1.0000   1.0000   1.0000   1.0000   1.0000   1.0000
     0.0000   0.0000   0.0000   0.0000   0.0000   0.0000

          k =-1.1250 0.7083 0.5417 (  1459 PWs)   bands (ev):

   -89.9954 -88.1298 -50.3992 -50.3725 -50.3693 -48.5861 -48.5720 -48.5684
    -5.3097  -4.9889   7.5950   8.3643   9.2120   9.5031   9.9078  10.1086
    12.0190  12.0789  12.6775  12.8401  13.0041  13.3195  13.5309  13.7262
    15.0365  15.4684  19.0965  20.0894  25.9590  27.4610

     occupation numbers 
     1.0000   1.0000   1.0000   1.0000   1.0000   1.0000   1.0000   1.0000
     1.0000   1.0000   1.0000   1.0000   1.0000   1.0000   1.0000   1.0000
     1.0000   1.0000   1.0000   1.0000   1.0000   1.0000   1.0000   1.0000
     0.0000   0.0000   0.0000   0.0000   0.0000   0.0000

          k =-1.0000 0.6667 0.5000 (  1466 PWs)   bands (ev):

   -89.9950 -88.1294 -50.3985 -50.3774 -50.3708 -48.5853 -48.5774 -48.5701
    -5.0824  -4.8867   7.4919   7.8754   9.1529   9.3988   9.8920   9.9916
    11.8629  12.2617  12.5755  12.7763  12.9761  13.4154  13.5706  13.7186
    14.8816  15.5741  20.1140  20.6192  26.1958  26.5527

     occupation numbers 
     1.0000   1.0000   1.0000   1.0000   1.0000   1.0000   1.0000   1.0000
     1.0000   1.0000   1.0000   1.0000   1.0000   1.0000   1.0000   1.0000
     1.0000   1.0000   1.0000   1.0000   1.0000   1.0000   1.0000   1.0000
     0.0000   0.0000   0.0000   0.0000   0.0000   0.0000

          k =-0.8750 0.6250 0.4583 (  1462 PWs)   bands (ev):

   -89.9945 -88.1289 -50.3977 -50.3830 -50.3725 -48.5844 -48.5836 -48.5720
    -4.8385  -4.7303   7.1736   7.5264   8.9786   9.1801   9.8477  10.0147
    11.6520  12.3522  12.6235  12.7178  13.1076  13.4792  13.6161  13.8092
    14.9408  15.6588  20.8794  21.0148  25.1373  25.8872

     occupation numbers 
     1.0000   1.0000   1.0000   1.0000   1.0000   1.0000   1.0000   1.0000
     1.0000   1.0000   1.0000   1.0000   1.0000   1.0000   1.0000   1.0000
     1.0000   1.0000   1.0000   1.0000   1.0000   1.0000   1.0000   1.0000
     0.0000   0.0000   0.0000   0.0000   0.0000   0.0000

          k =-0.6667-0.6667 1.0000 (  1463 PWs)   bands (ev):

   -89.9953 -88.1297 -50.3990 -50.3740 -50.3696 -48.5859 -48.5736 -48.5687
    -5.2032  -5.0114   7.6653   8.1520   9.3038   9.4717   9.8423   9.9542
    11.8949  12.1984  12.6827  12.8541  13.0315  13.2805  13.5815  13.7393
    15.0192  15.4670  19.3683  20.1983  26.1933  26.9684

     occupation numbers 
     1.0000   1.0000   1.0000   1.0000   1.0000   1.0000   1.0000   1.0000
     1.0000   1.0000   1.0000   1.0000   1.0000   1.0000   1.0000   1.0000
     1.0000   1.0000   1.0000   1.0000   1.0000   1.0000   1.0000   1.0000
     0.0000   0.0000   0.0000   0.0000   0.0000   0.0000

          k =-0.5417-0.7083 0.9583 (  1467 PWs)   bands (ev):

   -89.9950 -88.1294 -50.3985 -50.3774 -50.3708 -48.5853 -48.5774 -48.5701
    -5.0227  -4.9484   7.5753   7.7974   9.2374   9.5512   9.7432   9.8086
    11.9242  12.2155  12.5640  12.8287  13.0249  13.3920  13.6016  13.7214
    14.9941  15.4720  20.1093  20.5399  26.4371  26.4627

     occupation numbers 
     1.0000   1.0000   1.0000   1.0000   1.0000   1.0000   1.0000   1.0000
     1.0000   1.0000   1.0000   1.0000   1.0000   1.0000   1.0000   1.0000
     1.0000   1.0000   1.0000   1.0000   1.0000   1.0000   1.0000   1.0000
     0.0000   0.0000   0.0000   0.0000   0.0000   0.0000

          k =-0.4167-0.7500 0.9167 (  1468 PWs)   bands (ev):

   -89.9946 -88.1290 -50.3978 -50.3816 -50.3729 -48.5845 -48.5821 -48.5724
    -4.8145  -4.8112   7.3623   7.5182   9.1764   9.3098   9.4892   9.7760
    12.0155  12.1117  12.6916  12.7011  13.1847  13.4847  13.6379  13.8174
    15.0876  15.3427  20.9328  20.9762  25.6397  25.7417

     occupation numbers 
     1.0000   1.0000   1.0000   1.0000   1.0000   1.0000   1.0000   1.0000
     1.0000   1.0000   1.0000   1.0000   1.0000   1.0000   1.0000   1.0000
     1.0000   1.0000   1.0000   1.0000   1.0000   1.0000   1.0000   1.0000
     0.0000   0.0000   0.0000   0.0000   0.0000   0.0000

          k =-0.5833-0.5833 0.9167 (  1461 PWs)   bands (ev):

   -89.9948 -88.1292 -50.3982 -50.3798 -50.3711 -48.5850 -48.5801 -48.5704
    -4.9327  -4.8930   7.4102   7.6526   9.0932   9.3178   9.9347  10.1103
    11.6204  12.3907  12.5312  12.7796  13.0211  13.4005  13.6390  13.7143
    14.8335  15.7433  20.4029  20.6354  25.7653  26.3130

     occupation numbers 
     1.0000   1.0000   1.0000   1.0000   1.0000   1.0000   1.0000   1.0000
     1.0000   1.0000   1.0000   1.0000   1.0000   1.0000   1.0000   1.0000
     1.0000   1.0000   1.0000   1.0000   1.0000   1.0000   1.0000   1.0000
     0.0000   0.0000   0.0000   0.0000   0.0000   0.0000

          k = 0.2083 0.2083 0.2083 (  1478 PWs)   bands (ev):

   -89.9957 -88.1302 -50.3998 -50.3681 -50.3681 -48.5868 -48.5671 -48.5671
    -5.4724  -5.1097   7.6911   8.8880   9.2974   9.2974  10.1446  10.1446
    12.0272  12.0272  12.3992  13.1467  13.1467  13.2957  13.7042  13.7042
    15.3394  15.3394  18.1951  19.2291  25.8956  27.5043

     occupation numbers 
     1.0000   1.0000   1.0000   1.0000   1.0000   1.0000   1.0000   1.0000
     1.0000   1.0000   1.0000   1.0000   1.0000   1.0000   1.0000   1.0000
     1.0000   1.0000   1.0000   1.0000   1.0000   1.0000   1.0000   1.0000
     0.0000   0.0000   0.0000   0.0000   0.0000   0.0000

          k =-1.1667 0.6667 0.6667 (  1467 PWs)   bands (ev):

   -89.9956 -88.1301 -50.3996 -50.3697 -50.3685 -48.5865 -48.5688 -48.5675
    -5.3620  -5.1264   7.8247   8.4867   9.2653   9.5001   9.9389  10.1537
    11.9781  12.0888  12.5033  13.0568  13.1086  13.3200  13.5910  13.6998
    15.0978  15.4678  18.7491  19.3927  26.1487  27.2324

     occupation numbers 
     1.0000   1.0000   1.0000   1.0000   1.0000   1.0000   1.0000   1.0000
     1.0000   1.0000   1.0000   1.0000   1.0000   1.0000   1.0000   1.0000
     1.0000   1.0000   1.0000   1.0000   1.0000   1.0000   1.0000   1.0000
     0.0000   0.0000   0.0000   0.0000   0.0000   0.0000

          k =-1.0417 0.6250 0.6250 (  1460 PWs)   bands (ev):

   -89.9953 -88.1297 -50.3990 -50.3740 -50.3696 -48.5859 -48.5736 -48.5687
    -5.1668  -5.0490   7.7461   8.0289   9.2022   9.5855   9.8062  10.1240
    11.8360  12.2219  12.7549  12.7620  12.9502  13.3569  13.5968  13.6238
    14.8694  15.6128  19.7456  19.9064  26.4078  27.0129

     occupation numbers 
     1.0000   1.0000   1.0000   1.0000   1.0000   1.0000   1.0000   1.0000
     1.0000   1.0000   1.0000   1.0000   1.0000   1.0000   1.0000   1.0000
     1.0000   1.0000   1.0000   1.0000   1.0000   1.0000   1.0000   1.0000
     0.0000   0.0000   0.0000   0.0000   0.0000   0.0000

          k =-0.7083-0.7083 1.1250 (  1465 PWs)   bands (ev):

   -89.9956 -88.1301 -50.3996 -50.3697 -50.3685 -48.5865 -48.5688 -48.5675
    -5.3032  -5.1879   7.9850   8.3405   9.3586   9.4316   9.9937  10.0070
    12.0045  12.0774  12.5088  13.0739  13.1119  13.2809  13.5818  13.7736
    15.2083  15.3358  18.8776  19.2718  26.3969  26.9313

     occupation numbers 
     1.0000   1.0000   1.0000   1.0000   1.0000   1.0000   1.0000   1.0000
     1.0000   1.0000   1.0000   1.0000   1.0000   1.0000   1.0000   1.0000
     1.0000   1.0000   1.0000   1.0000   1.0000   1.0000   1.0000   1.0000
     0.0000   0.0000   0.0000   0.0000   0.0000   0.0000

          k =-0.5833-0.7500 1.0833 (  1464 PWs)   bands (ev):

   -89.9954 -88.1298 -50.3992 -50.3725 -50.3693 -48.5861 -48.5720 -48.5684
    -5.1538  -5.1511   7.8971   8.0585   9.3011   9.6121   9.8223   9.9466
    12.0422  12.0566  12.6930  12.8392  13.0147  13.3359  13.6117  13.6280
    15.0871  15.4050  19.5872  19.6358  26.6571  26.7449

     occupation numbers 
     1.0000   1.0000   1.0000   1.0000   1.0000   1.0000   1.0000   1.0000
     1.0000   1.0000   1.0000   1.0000   1.0000   1.0000   1.0000   1.0000
     1.0000   1.0000   1.0000   1.0000   1.0000   1.0000   1.0000   1.0000
     0.0000   0.0000   0.0000   0.0000   0.0000   0.0000

          k =-0.2500-0.2500-0.2500 (  1466 PWs)   bands (ev):

   -89.9957 -88.1302 -50.3998 -50.3681 -50.3681 -48.5868 -48.5671 -48.5671
    -5.2979  -5.2926   8.2407   8.2934   9.3696   9.3696  10.0377  10.0377
    12.0352  12.0352  12.4126  13.1400  13.1400  13.2732  13.7878  13.7878
    15.2841  15.2841  18.6865  18.8134  26.5696  26.7001

     occupation numbers 
     1.0000   1.0000   1.0000   1.0000   1.0000   1.0000   1.0000   1.0000
     1.0000   1.0000   1.0000   1.0000   1.0000   1.0000   1.0000   1.0000
     1.0000   1.0000   1.0000   1.0000   1.0000   1.0000   1.0000   1.0000
     0.0000   0.0000   0.0000   0.0000   0.0000   0.0000

     the Fermi energy is    13.9041 ev
     (compare with:    14.3414 eV, computed in scf)

     Writing all to output data dir ./nio.save/

     init_run     :      1.85s CPU      2.04s WALL (       1 calls)
     electrons    :    577.69s CPU    581.32s WALL (       1 calls)

     Called by init_run:
     wfcinit      :      0.00s CPU      0.00s WALL (       1 calls)
     wfcinit:atom :      0.19s CPU      0.22s WALL (     378 calls)
     wfcinit:wfcr :     37.18s CPU     37.89s WALL (     378 calls)
     potinit      :      0.59s CPU      0.65s WALL (       1 calls)
     hinit0       :      0.83s CPU      0.85s WALL (       1 calls)

     Called by electrons:
     c_bands      :    577.41s CPU    580.98s WALL (       1 calls)
     v_of_rho     :      0.53s CPU      0.59s WALL (       1 calls)
     v_h          :      0.01s CPU      0.01s WALL (       1 calls)
     v_xc         :      0.52s CPU      0.58s WALL (       1 calls)
     newd         :      0.36s CPU      0.44s WALL (       1 calls)

     Called by c_bands:
     init_us_2    :      0.23s CPU      0.27s WALL (     378 calls)
     init_us_2:cp :      0.23s CPU      0.27s WALL (     378 calls)
     cegterg      :    538.13s CPU    540.75s WALL (     738 calls)

     Called by sum_band:

     Called by *egterg:
     cdiaghg      :     12.08s CPU     12.16s WALL (   10679 calls)
     cegterg:over :     33.34s CPU     33.50s WALL (   10301 calls)
     cegterg:upda :     15.43s CPU     15.49s WALL (   10301 calls)
     cegterg:last :     43.45s CPU     43.63s WALL (    5890 calls)
     h_psi        :    445.85s CPU    448.66s WALL (   11417 calls)
     s_psi        :     17.79s CPU     17.89s WALL (   11417 calls)
     g_psi        :      0.82s CPU      0.82s WALL (   10301 calls)

     Called by h_psi:
     h_psi:calbec :     22.47s CPU     22.60s WALL (   11417 calls)
     vloc_psi     :    404.88s CPU    407.47s WALL (   11417 calls)
     add_vuspsi   :     17.90s CPU     18.00s WALL (   11417 calls)

     General routines
     calbec       :     22.42s CPU     22.57s WALL (   11417 calls)
     fft          :      0.23s CPU      0.24s WALL (      23 calls)
     ffts         :      0.00s CPU      0.00s WALL (       2 calls)
     fftw         :    372.19s CPU    374.75s WALL (  393620 calls)
     interpolate  :      0.03s CPU      0.03s WALL (       2 calls)
     davcio       :      0.15s CPU      0.21s WALL (     756 calls)

     Parallel routines

     PWSCF        :   9m40.05s CPU   9m44.64s WALL


   This run was terminated on:  18: 4:21   1Feb2022            

=------------------------------------------------------------------------------=
   JOB DONE.
=------------------------------------------------------------------------------=
