
     Program PWSCF v.7.0 starts on  1Feb2022 at 19: 2:41 

     This program is part of the open-source Quantum ESPRESSO suite
     for quantum simulation of materials; please cite
         "P. Giannozzi et al., J. Phys.:Condens. Matter 21 395502 (2009);
         "P. Giannozzi et al., J. Phys.:Condens. Matter 29 465901 (2017);
         "P. Giannozzi et al., J. Chem. Phys. 152 154105 (2020);
          URL http://www.quantum-espresso.org", 
     in publications or presentations arising from this work. More details at
     http://www.quantum-espresso.org/quote

     Parallel version (MPI), running on     1 processors

     MPI processes distributed on     1 nodes
     384 MiB available memory on the printing compute node when the environment starts

     Reading input from 02-nio-hub-nscf.in
     Message from routine read_cards :
     DEPRECATED: no units specified in CELL_PARAMETERS card

     Current dimensions of program PWSCF are:
     Max number of different atomic species (ntypx) = 10
     Max number of k-points (npk) =  40000
     Max angular momentum in pseudopotentials (lmaxx) =  4
     Message from routine volume:
     axis vectors are left-handed

     Atomic positions and unit cell read from directory:
     ./nio_hub.save/
     Atomic positions from file used, from input discarded

     Message from routine volume:
     axis vectors are left-handed
     Message from routine setup:
     using ibrav=0 with symmetry is DISCOURAGED, use correct ibrav instead

     Subspace diagonalization in iterative solution of the eigenvalue problem:
     a serial algorithm will be used


     G-vector sticks info
     --------------------
     sticks:   dense  smooth     PW     G-vecs:    dense   smooth      PW
     Sum        2457     813    283                60755    11627    2381

     Using Slab Decomposition



     bravais-lattice index     =            0
     lattice parameter (alat)  =       7.8802  a.u.
     unit-cell volume          =     244.6666 (a.u.)^3
     number of atoms/cell      =            4
     number of atomic types    =            3
     number of electrons       =        48.00
     number of Kohn-Sham states=           30
     kinetic-energy cutoff     =      50.0000  Ry
     charge density cutoff     =     600.0000  Ry
     Exchange-correlation=  SLA  PW   PBX  PBC
                           (   1   4   3   4   0   0   0)

     celldm(1)=   7.880158  celldm(2)=   0.000000  celldm(3)=   0.000000
     celldm(4)=   0.000000  celldm(5)=   0.000000  celldm(6)=   0.000000

     crystal axes: (cart. coord. in units of alat)
               a(1) = (   0.500000   0.500000   1.000000 )  
               a(2) = (   0.500000   1.000000   0.500000 )  
               a(3) = (   1.000000   0.500000   0.500000 )  

     reciprocal axes: (cart. coord. in units 2 pi/alat)
               b(1) = ( -0.500000 -0.500000  1.500000 )  
               b(2) = ( -0.500000  1.500000 -0.500000 )  
               b(3) = (  1.500000 -0.500000 -0.500000 )  


     PseudoPot. # 1 for O  read from file:
     /home/user/pseudo_dir/o_pbe_v1.2.uspp.F.UPF
     MD5 check sum: 734c27235a0248c51dbae37a1fbe46ec
     Pseudo is Ultrasoft + core correction, Zval =  6.0
     Generated by new atomic code, or converted to UPF format
     Using radial grid of  737 points,  5 beta functions with: 
                l(1) =   0
                l(2) =   0
                l(3) =   1
                l(4) =   1
                l(5) =   2
     Q(r) pseudized with  8 coefficients,  rinner =    0.900   0.900   0.900
                                                       0.900   0.900

     PseudoPot. # 2 for Ni read from file:
     /home/user/pseudo_dir/ni_pbe_v1.4.uspp.F.UPF
     MD5 check sum: 1ee80287db30b12d2bc1f57a5b5d6409
     Pseudo is Ultrasoft + core correction, Zval = 18.0
     Generated by new atomic code, or converted to UPF format
     Using radial grid of  865 points,  6 beta functions with: 
                l(1) =   0
                l(2) =   0
                l(3) =   1
                l(4) =   1
                l(5) =   2
                l(6) =   2
     Q(r) pseudized with 10 coefficients,  rinner =    0.980   0.980   0.980
                                                       0.980   0.980

     PseudoPot. # 3 for Ni read from file:
     /home/user/pseudo_dir/ni_pbe_v1.4.uspp.F.UPF
     MD5 check sum: 1ee80287db30b12d2bc1f57a5b5d6409
     Pseudo is Ultrasoft + core correction, Zval = 18.0
     Generated by new atomic code, or converted to UPF format
     Using radial grid of  865 points,  6 beta functions with: 
                l(1) =   0
                l(2) =   0
                l(3) =   1
                l(4) =   1
                l(5) =   2
                l(6) =   2
     Q(r) pseudized with 10 coefficients,  rinner =    0.980   0.980   0.980
                                                       0.980   0.980

     atomic species   valence    mass     pseudopotential
        O              6.00    15.99940     O ( 1.00)
        Ni1           18.00    58.59340     Ni( 1.00)
        Ni2           18.00    58.59340     Ni( 1.00)

     Starting magnetic structure 
     atomic species   magnetization
        O            0.000
        Ni1          0.500
        Ni2         -0.500


     Simplified LDA+U calculation (l_max = 2) with parameters (eV):
     atomic species    L          U    alpha       J0     beta
        Ni1            2     4.6000   0.0000   0.0000   0.0000
        Ni2            2     4.6000   0.0000   0.0000   0.0000



     12 Sym. Ops., with inversion, found


                                    s                        frac. trans.

      isym =  1     identity                                     

 cryst.   s( 1) = (     1          0          0      )
                  (     0          1          0      )
                  (     0          0          1      )

 cart.    s( 1) = (  1.0000000  0.0000000  0.0000000 )
                  (  0.0000000  1.0000000  0.0000000 )
                  (  0.0000000  0.0000000  1.0000000 )


      isym =  2     180 deg rotation - cart. axis [1,-1,0]       

 cryst.   s( 2) = (    -1          0          0      )
                  (     0          0         -1      )
                  (     0         -1          0      )

 cart.    s( 2) = (  0.0000000 -1.0000000  0.0000000 )
                  ( -1.0000000  0.0000000  0.0000000 )
                  (  0.0000000  0.0000000 -1.0000000 )


      isym =  3     180 deg rotation - cart. axis [-1,0,1]       

 cryst.   s( 3) = (     0          0         -1      )
                  (     0         -1          0      )
                  (    -1          0          0      )

 cart.    s( 3) = (  0.0000000  0.0000000 -1.0000000 )
                  (  0.0000000 -1.0000000  0.0000000 )
                  ( -1.0000000  0.0000000  0.0000000 )


      isym =  4     180 deg rotation - cart. axis [0,1,-1]       

 cryst.   s( 4) = (     0         -1          0      )
                  (    -1          0          0      )
                  (     0          0         -1      )

 cart.    s( 4) = ( -1.0000000  0.0000000  0.0000000 )
                  (  0.0000000  0.0000000 -1.0000000 )
                  (  0.0000000 -1.0000000  0.0000000 )


      isym =  5     120 deg rotation - cart. axis [-1,-1,-1]     

 cryst.   s( 5) = (     0          1          0      )
                  (     0          0          1      )
                  (     1          0          0      )

 cart.    s( 5) = (  0.0000000  1.0000000  0.0000000 )
                  (  0.0000000  0.0000000  1.0000000 )
                  (  1.0000000  0.0000000  0.0000000 )


      isym =  6     120 deg rotation - cart. axis [1,1,1]        

 cryst.   s( 6) = (     0          0          1      )
                  (     1          0          0      )
                  (     0          1          0      )

 cart.    s( 6) = (  0.0000000  0.0000000  1.0000000 )
                  (  1.0000000  0.0000000  0.0000000 )
                  (  0.0000000  1.0000000  0.0000000 )


      isym =  7     inversion                                    

 cryst.   s( 7) = (    -1          0          0      )
                  (     0         -1          0      )
                  (     0          0         -1      )

 cart.    s( 7) = ( -1.0000000  0.0000000  0.0000000 )
                  (  0.0000000 -1.0000000  0.0000000 )
                  (  0.0000000  0.0000000 -1.0000000 )


      isym =  8     inv. 180 deg rotation - cart. axis [1,-1,0]  

 cryst.   s( 8) = (     1          0          0      )
                  (     0          0          1      )
                  (     0          1          0      )

 cart.    s( 8) = (  0.0000000  1.0000000  0.0000000 )
                  (  1.0000000  0.0000000  0.0000000 )
                  (  0.0000000  0.0000000  1.0000000 )


      isym =  9     inv. 180 deg rotation - cart. axis [-1,0,1]  

 cryst.   s( 9) = (     0          0          1      )
                  (     0          1          0      )
                  (     1          0          0      )

 cart.    s( 9) = (  0.0000000  0.0000000  1.0000000 )
                  (  0.0000000  1.0000000  0.0000000 )
                  (  1.0000000  0.0000000  0.0000000 )


      isym = 10     inv. 180 deg rotation - cart. axis [0,1,-1]  

 cryst.   s(10) = (     0          1          0      )
                  (     1          0          0      )
                  (     0          0          1      )

 cart.    s(10) = (  1.0000000  0.0000000  0.0000000 )
                  (  0.0000000  0.0000000  1.0000000 )
                  (  0.0000000  1.0000000  0.0000000 )


      isym = 11     inv. 120 deg rotation - cart. axis [-1,-1,-1]

 cryst.   s(11) = (     0         -1          0      )
                  (     0          0         -1      )
                  (    -1          0          0      )

 cart.    s(11) = (  0.0000000 -1.0000000  0.0000000 )
                  (  0.0000000  0.0000000 -1.0000000 )
                  ( -1.0000000  0.0000000  0.0000000 )


      isym = 12     inv. 120 deg rotation - cart. axis [1,1,1]   

 cryst.   s(12) = (     0          0         -1      )
                  (    -1          0          0      )
                  (     0         -1          0      )

 cart.    s(12) = (  0.0000000  0.0000000 -1.0000000 )
                  ( -1.0000000  0.0000000  0.0000000 )
                  (  0.0000000 -1.0000000  0.0000000 )


   Cartesian axes

     site n.     atom                  positions (alat units)
         1           O   tau(   1) = (   0.5000000   0.5000000   0.5000000  )
         2           O   tau(   2) = (   1.5000000   1.5000000   1.5000000  )
         3           Ni1 tau(   3) = (   0.0000000   0.0000000   0.0000000  )
         4           Ni2 tau(   4) = (   1.0000000   1.0000000   1.0000000  )

   Crystallographic axes

     site n.     atom                  positions (cryst. coord.)
         1           O   tau(   1) = (  0.2500000  0.2500000  0.2500000  )
         2           O   tau(   2) = (  0.7500000  0.7500000  0.7500000  )
         3           Ni1 tau(   3) = (  0.0000000  0.0000000  0.0000000  )
         4           Ni2 tau(   4) = (  0.5000000  0.5000000  0.5000000  )

     number of k points=   189 (tetrahedron method)
                       cart. coord. in units 2pi/alat
        k(    1) = (   0.0000000   0.0000000   0.0000000), wk =   0.0005787
        k(    2) = (   0.1250000  -0.0416667  -0.0416667), wk =   0.0034722
        k(    3) = (   0.2500000  -0.0833333  -0.0833333), wk =   0.0034722
        k(    4) = (   0.3750000  -0.1250000  -0.1250000), wk =   0.0034722
        k(    5) = (   0.5000000  -0.1666667  -0.1666667), wk =   0.0034722
        k(    6) = (   0.6250000  -0.2083333  -0.2083333), wk =   0.0034722
        k(    7) = (  -0.7500000   0.2500000   0.2500000), wk =   0.0017361
        k(    8) = (   0.0833333   0.0833333  -0.0833333), wk =   0.0034722
        k(    9) = (   0.2083333   0.0416667  -0.1250000), wk =   0.0069444
        k(   10) = (   0.3333333   0.0000000  -0.1666667), wk =   0.0069444
        k(   11) = (   0.4583333  -0.0416667  -0.2083333), wk =   0.0069444
        k(   12) = (   0.5833333  -0.0833333  -0.2500000), wk =   0.0069444
        k(   13) = (  -0.7916667   0.3750000   0.2083333), wk =   0.0069444
        k(   14) = (  -0.6666667   0.3333333   0.1666667), wk =   0.0069444
        k(   15) = (  -0.5416667   0.2916667   0.1250000), wk =   0.0069444
        k(   16) = (  -0.4166667   0.2500000   0.0833333), wk =   0.0069444
        k(   17) = (  -0.2916667   0.2083333   0.0416667), wk =   0.0069444
        k(   18) = (  -0.1666667   0.1666667   0.0000000), wk =   0.0034722
        k(   19) = (   0.1666667   0.1666667  -0.1666667), wk =   0.0034722
        k(   20) = (   0.2916667   0.1250000  -0.2083333), wk =   0.0069444
        k(   21) = (   0.4166667   0.0833333  -0.2500000), wk =   0.0069444
        k(   22) = (   0.5416667   0.0416667  -0.2916667), wk =   0.0069444
        k(   23) = (  -0.8333333   0.5000000   0.1666667), wk =   0.0069444
        k(   24) = (  -0.7083333   0.4583333   0.1250000), wk =   0.0069444
        k(   25) = (  -0.5833333   0.4166667   0.0833333), wk =   0.0069444
        k(   26) = (  -0.4583333   0.3750000   0.0416667), wk =   0.0069444
        k(   27) = (  -0.3333333   0.3333333  -0.0000000), wk =   0.0034722
        k(   28) = (   0.2500000   0.2500000  -0.2500000), wk =   0.0034722
        k(   29) = (   0.3750000   0.2083333  -0.2916667), wk =   0.0069444
        k(   30) = (   0.5000000   0.1666667  -0.3333333), wk =   0.0069444
        k(   31) = (  -0.8750000   0.6250000   0.1250000), wk =   0.0069444
        k(   32) = (  -0.7500000   0.5833333   0.0833333), wk =   0.0069444
        k(   33) = (  -0.6250000   0.5416667   0.0416667), wk =   0.0069444
        k(   34) = (  -0.5000000   0.5000000   0.0000000), wk =   0.0034722
        k(   35) = (   0.3333333   0.3333333  -0.3333333), wk =   0.0034722
        k(   36) = (   0.4583333   0.2916667  -0.3750000), wk =   0.0069444
        k(   37) = (  -0.9166667   0.7500000   0.0833333), wk =   0.0069444
        k(   38) = (  -0.7916667   0.7083333   0.0416667), wk =   0.0069444
        k(   39) = (  -0.6666667   0.6666667   0.0000000), wk =   0.0034722
        k(   40) = (   0.4166667   0.4166667  -0.4166667), wk =   0.0034722
        k(   41) = (  -0.9583333   0.8750000   0.0416667), wk =   0.0069444
        k(   42) = (  -0.8333333   0.8333333  -0.0000000), wk =   0.0034722
        k(   43) = (  -0.5000000  -0.5000000   0.5000000), wk =   0.0017361
        k(   44) = (   0.0416667   0.0416667   0.0416667), wk =   0.0011574
        k(   45) = (   0.1666667   0.0000000   0.0000000), wk =   0.0034722
        k(   46) = (   0.2916667  -0.0416667  -0.0416667), wk =   0.0034722
        k(   47) = (   0.4166667  -0.0833333  -0.0833333), wk =   0.0034722
        k(   48) = (   0.5416667  -0.1250000  -0.1250000), wk =   0.0034722
        k(   49) = (  -0.8333333   0.3333333   0.3333333), wk =   0.0034722
        k(   50) = (  -0.7083333   0.2916667   0.2916667), wk =   0.0034722
        k(   51) = (  -0.5833333   0.2500000   0.2500000), wk =   0.0034722
        k(   52) = (  -0.4583333   0.2083333   0.2083333), wk =   0.0034722
        k(   53) = (  -0.3333333   0.1666667   0.1666667), wk =   0.0034722
        k(   54) = (  -0.2083333   0.1250000   0.1250000), wk =   0.0034722
        k(   55) = (   0.1250000   0.1250000  -0.0416667), wk =   0.0034722
        k(   56) = (   0.2500000   0.0833333  -0.0833333), wk =   0.0069444
        k(   57) = (   0.3750000   0.0416667  -0.1250000), wk =   0.0069444
        k(   58) = (   0.5000000   0.0000000  -0.1666667), wk =   0.0069444
        k(   59) = (  -0.8750000   0.4583333   0.2916667), wk =   0.0069444
        k(   60) = (  -0.7500000   0.4166667   0.2500000), wk =   0.0069444
        k(   61) = (  -0.6250000   0.3750000   0.2083333), wk =   0.0069444
        k(   62) = (  -0.5000000   0.3333333   0.1666667), wk =   0.0069444
        k(   63) = (  -0.3750000   0.2916667   0.1250000), wk =   0.0069444
        k(   64) = (  -0.2500000   0.2500000   0.0833333), wk =   0.0069444
        k(   65) = (   0.2083333   0.2083333  -0.1250000), wk =   0.0034722
        k(   66) = (   0.3333333   0.1666667  -0.1666667), wk =   0.0069444
        k(   67) = (   0.4583333   0.1250000  -0.2083333), wk =   0.0069444
        k(   68) = (  -0.9166667   0.5833333   0.2500000), wk =   0.0069444
        k(   69) = (  -0.7916667   0.5416667   0.2083333), wk =   0.0069444
        k(   70) = (  -0.6666667   0.5000000   0.1666667), wk =   0.0069444
        k(   71) = (  -0.5416667   0.4583333   0.1250000), wk =   0.0069444
        k(   72) = (  -0.4166667   0.4166667   0.0833333), wk =   0.0069444
        k(   73) = (  -0.2916667   0.3750000   0.0416667), wk =   0.0069444
        k(   74) = (   0.2916667   0.2916667  -0.2083333), wk =   0.0034722
        k(   75) = (   0.4166667   0.2500000  -0.2500000), wk =   0.0069444
        k(   76) = (  -0.9583333   0.7083333   0.2083333), wk =   0.0069444
        k(   77) = (  -0.8333333   0.6666667   0.1666667), wk =   0.0069444
        k(   78) = (  -0.7083333   0.6250000   0.1250000), wk =   0.0069444
        k(   79) = (  -0.5833333   0.5833333   0.0833333), wk =   0.0069444
        k(   80) = (  -0.4583333   0.5416667   0.0416667), wk =   0.0069444
        k(   81) = (  -0.3333333   0.5000000   0.0000000), wk =   0.0069444
        k(   82) = (   0.3750000   0.3750000  -0.2916667), wk =   0.0034722
        k(   83) = (  -1.0000000   0.8333333   0.1666667), wk =   0.0069444
        k(   84) = (  -0.8750000   0.7916667   0.1250000), wk =   0.0069444
        k(   85) = (  -0.7500000   0.7500000   0.0833333), wk =   0.0069444
        k(   86) = (  -0.6250000   0.7083333   0.0416667), wk =   0.0069444
        k(   87) = (  -0.5000000   0.6666667  -0.0000000), wk =   0.0069444
        k(   88) = (  -0.3750000   0.6250000  -0.0416667), wk =   0.0069444
        k(   89) = (  -0.5416667  -0.5416667   0.6250000), wk =   0.0034722
        k(   90) = (  -0.4166667  -0.5833333   0.5833333), wk =   0.0069444
        k(   91) = (  -0.2916667  -0.6250000   0.5416667), wk =   0.0069444
        k(   92) = (  -0.1666667  -0.6666667   0.5000000), wk =   0.0069444
        k(   93) = (  -0.0416667  -0.7083333   0.4583333), wk =   0.0069444
        k(   94) = (   0.0833333  -0.7500000   0.4166667), wk =   0.0034722
        k(   95) = (  -0.4583333  -0.4583333   0.5416667), wk =   0.0034722
        k(   96) = (  -0.3333333  -0.5000000   0.5000000), wk =   0.0069444
        k(   97) = (  -0.2083333  -0.5416667   0.4583333), wk =   0.0069444
        k(   98) = (  -0.0833333  -0.5833333   0.4166667), wk =   0.0069444
        k(   99) = (  -0.3750000  -0.3750000   0.4583333), wk =   0.0034722
        k(  100) = (  -0.2500000  -0.4166667   0.4166667), wk =   0.0069444
        k(  101) = (  -0.1250000  -0.4583333   0.3750000), wk =   0.0069444
        k(  102) = (  -0.2916667  -0.2916667   0.3750000), wk =   0.0034722
        k(  103) = (  -0.1666667  -0.3333333   0.3333333), wk =   0.0069444
        k(  104) = (  -0.2083333  -0.2083333   0.2916667), wk =   0.0034722
        k(  105) = (   0.0833333   0.0833333   0.0833333), wk =   0.0011574
        k(  106) = (   0.2083333   0.0416667   0.0416667), wk =   0.0034722
        k(  107) = (   0.3333333   0.0000000   0.0000000), wk =   0.0034722
        k(  108) = (   0.4583333  -0.0416667  -0.0416667), wk =   0.0034722
        k(  109) = (  -0.9166667   0.4166667   0.4166667), wk =   0.0034722
        k(  110) = (  -0.7916667   0.3750000   0.3750000), wk =   0.0034722
        k(  111) = (  -0.6666667   0.3333333   0.3333333), wk =   0.0034722
        k(  112) = (  -0.5416667   0.2916667   0.2916667), wk =   0.0034722
        k(  113) = (  -0.4166667   0.2500000   0.2500000), wk =   0.0034722
        k(  114) = (   0.1666667   0.1666667   0.0000000), wk =   0.0034722
        k(  115) = (   0.2916667   0.1250000  -0.0416667), wk =   0.0069444
        k(  116) = (   0.4166667   0.0833333  -0.0833333), wk =   0.0069444
        k(  117) = (  -0.9583333   0.5416667   0.3750000), wk =   0.0069444
        k(  118) = (  -0.8333333   0.5000000   0.3333333), wk =   0.0069444
        k(  119) = (  -0.7083333   0.4583333   0.2916667), wk =   0.0069444
        k(  120) = (  -0.5833333   0.4166667   0.2500000), wk =   0.0069444
        k(  121) = (  -0.4583333   0.3750000   0.2083333), wk =   0.0069444
        k(  122) = (   0.2500000   0.2500000  -0.0833333), wk =   0.0034722
        k(  123) = (   0.3750000   0.2083333  -0.1250000), wk =   0.0069444
        k(  124) = (  -1.0000000   0.6666667   0.3333333), wk =   0.0069444
        k(  125) = (  -0.8750000   0.6250000   0.2916667), wk =   0.0069444
        k(  126) = (  -0.7500000   0.5833333   0.2500000), wk =   0.0069444
        k(  127) = (  -0.6250000   0.5416667   0.2083333), wk =   0.0069444
        k(  128) = (  -0.5000000   0.5000000   0.1666667), wk =   0.0069444
        k(  129) = (   0.3333333   0.3333333  -0.1666667), wk =   0.0034722
        k(  130) = (  -1.0416667   0.7916667   0.2916667), wk =   0.0069444
        k(  131) = (  -0.9166667   0.7500000   0.2500000), wk =   0.0069444
        k(  132) = (  -0.7916667   0.7083333   0.2083333), wk =   0.0069444
        k(  133) = (  -0.6666667   0.6666667   0.1666667), wk =   0.0069444
        k(  134) = (  -0.5416667   0.6250000   0.1250000), wk =   0.0069444
        k(  135) = (  -0.5833333  -0.5833333   0.7500000), wk =   0.0034722
        k(  136) = (  -0.4583333  -0.6250000   0.7083333), wk =   0.0069444
        k(  137) = (  -0.3333333  -0.6666667   0.6666667), wk =   0.0069444
        k(  138) = (  -0.2083333  -0.7083333   0.6250000), wk =   0.0069444
        k(  139) = (  -0.0833333  -0.7500000   0.5833333), wk =   0.0034722
        k(  140) = (  -0.5000000  -0.5000000   0.6666667), wk =   0.0034722
        k(  141) = (  -0.3750000  -0.5416667   0.6250000), wk =   0.0069444
        k(  142) = (  -0.2500000  -0.5833333   0.5833333), wk =   0.0069444
        k(  143) = (  -0.4166667  -0.4166667   0.5833333), wk =   0.0034722
        k(  144) = (  -0.2916667  -0.4583333   0.5416667), wk =   0.0069444
        k(  145) = (  -0.3333333  -0.3333333   0.5000000), wk =   0.0034722
        k(  146) = (   0.1250000   0.1250000   0.1250000), wk =   0.0011574
        k(  147) = (   0.2500000   0.0833333   0.0833333), wk =   0.0034722
        k(  148) = (   0.3750000   0.0416667   0.0416667), wk =   0.0034722
        k(  149) = (  -1.0000000   0.5000000   0.5000000), wk =   0.0034722
        k(  150) = (  -0.8750000   0.4583333   0.4583333), wk =   0.0034722
        k(  151) = (  -0.7500000   0.4166667   0.4166667), wk =   0.0034722
        k(  152) = (  -0.6250000   0.3750000   0.3750000), wk =   0.0034722
        k(  153) = (   0.2083333   0.2083333   0.0416667), wk =   0.0034722
        k(  154) = (   0.3333333   0.1666667  -0.0000000), wk =   0.0069444
        k(  155) = (  -1.0416667   0.6250000   0.4583333), wk =   0.0069444
        k(  156) = (  -0.9166667   0.5833333   0.4166667), wk =   0.0069444
        k(  157) = (  -0.7916667   0.5416667   0.3750000), wk =   0.0069444
        k(  158) = (  -0.6666667   0.5000000   0.3333333), wk =   0.0069444
        k(  159) = (   0.2916667   0.2916667  -0.0416667), wk =   0.0034722
        k(  160) = (  -1.0833333   0.7500000   0.4166667), wk =   0.0069444
        k(  161) = (  -0.9583333   0.7083333   0.3750000), wk =   0.0069444
        k(  162) = (  -0.8333333   0.6666667   0.3333333), wk =   0.0069444
        k(  163) = (  -0.7083333   0.6250000   0.2916667), wk =   0.0069444
        k(  164) = (  -0.6250000  -0.6250000   0.8750000), wk =   0.0034722
        k(  165) = (  -0.5000000  -0.6666667   0.8333333), wk =   0.0069444
        k(  166) = (  -0.3750000  -0.7083333   0.7916667), wk =   0.0069444
        k(  167) = (  -0.2500000  -0.7500000   0.7500000), wk =   0.0034722
        k(  168) = (  -0.5416667  -0.5416667   0.7916667), wk =   0.0034722
        k(  169) = (  -0.4166667  -0.5833333   0.7500000), wk =   0.0069444
        k(  170) = (  -0.4583333  -0.4583333   0.7083333), wk =   0.0034722
        k(  171) = (   0.1666667   0.1666667   0.1666667), wk =   0.0011574
        k(  172) = (   0.2916667   0.1250000   0.1250000), wk =   0.0034722
        k(  173) = (  -1.0833333   0.5833333   0.5833333), wk =   0.0034722
        k(  174) = (  -0.9583333   0.5416667   0.5416667), wk =   0.0034722
        k(  175) = (  -0.8333333   0.5000000   0.5000000), wk =   0.0034722
        k(  176) = (   0.2500000   0.2500000   0.0833333), wk =   0.0034722
        k(  177) = (  -1.1250000   0.7083333   0.5416667), wk =   0.0069444
        k(  178) = (  -1.0000000   0.6666667   0.5000000), wk =   0.0069444
        k(  179) = (  -0.8750000   0.6250000   0.4583333), wk =   0.0069444
        k(  180) = (  -0.6666667  -0.6666667   1.0000000), wk =   0.0034722
        k(  181) = (  -0.5416667  -0.7083333   0.9583333), wk =   0.0069444
        k(  182) = (  -0.4166667  -0.7500000   0.9166667), wk =   0.0034722
        k(  183) = (  -0.5833333  -0.5833333   0.9166667), wk =   0.0034722
        k(  184) = (   0.2083333   0.2083333   0.2083333), wk =   0.0011574
        k(  185) = (  -1.1666667   0.6666667   0.6666667), wk =   0.0034722
        k(  186) = (  -1.0416667   0.6250000   0.6250000), wk =   0.0034722
        k(  187) = (  -0.7083333  -0.7083333   1.1250000), wk =   0.0034722
        k(  188) = (  -0.5833333  -0.7500000   1.0833333), wk =   0.0034722
        k(  189) = (  -0.2500000  -0.2500000  -0.2500000), wk =   0.0005787

                       cryst. coord.
        k(    1) = (   0.0000000   0.0000000   0.0000000), wk =   0.0005787
        k(    2) = (   0.0000000  -0.0000000   0.0833333), wk =   0.0034722
        k(    3) = (   0.0000000  -0.0000000   0.1666667), wk =   0.0034722
        k(    4) = (   0.0000000   0.0000000   0.2500000), wk =   0.0034722
        k(    5) = (   0.0000000  -0.0000000   0.3333333), wk =   0.0034722
        k(    6) = (  -0.0000000  -0.0000000   0.4166667), wk =   0.0034722
        k(    7) = (   0.0000000   0.0000000  -0.5000000), wk =   0.0017361
        k(    8) = (   0.0000000   0.0833333   0.0833333), wk =   0.0034722
        k(    9) = (  -0.0000000   0.0833333   0.1666667), wk =   0.0069444
        k(   10) = (   0.0000000   0.0833333   0.2500000), wk =   0.0069444
        k(   11) = (  -0.0000000   0.0833333   0.3333333), wk =   0.0069444
        k(   12) = (   0.0000000   0.0833333   0.4166667), wk =   0.0069444
        k(   13) = (   0.0000000   0.0833333  -0.5000000), wk =   0.0069444
        k(   14) = (   0.0000000   0.0833333  -0.4166667), wk =   0.0069444
        k(   15) = (   0.0000000   0.0833333  -0.3333333), wk =   0.0069444
        k(   16) = (   0.0000000   0.0833333  -0.2500000), wk =   0.0069444
        k(   17) = (   0.0000000   0.0833333  -0.1666667), wk =   0.0069444
        k(   18) = (   0.0000000   0.0833333  -0.0833333), wk =   0.0034722
        k(   19) = (   0.0000000   0.1666667   0.1666667), wk =   0.0034722
        k(   20) = (   0.0000000   0.1666667   0.2500000), wk =   0.0069444
        k(   21) = (  -0.0000000   0.1666667   0.3333333), wk =   0.0069444
        k(   22) = (   0.0000000   0.1666667   0.4166667), wk =   0.0069444
        k(   23) = (   0.0000000   0.1666667  -0.5000000), wk =   0.0069444
        k(   24) = (   0.0000000   0.1666667  -0.4166667), wk =   0.0069444
        k(   25) = (  -0.0000000   0.1666667  -0.3333333), wk =   0.0069444
        k(   26) = (   0.0000000   0.1666667  -0.2500000), wk =   0.0069444
        k(   27) = (   0.0000000   0.1666667  -0.1666667), wk =   0.0034722
        k(   28) = (   0.0000000   0.2500000   0.2500000), wk =   0.0034722
        k(   29) = (   0.0000000   0.2500000   0.3333333), wk =   0.0069444
        k(   30) = (  -0.0000000   0.2500000   0.4166667), wk =   0.0069444
        k(   31) = (   0.0000000   0.2500000  -0.5000000), wk =   0.0069444
        k(   32) = (  -0.0000000   0.2500000  -0.4166667), wk =   0.0069444
        k(   33) = (   0.0000000   0.2500000  -0.3333333), wk =   0.0069444
        k(   34) = (   0.0000000   0.2500000  -0.2500000), wk =   0.0034722
        k(   35) = (   0.0000000   0.3333333   0.3333333), wk =   0.0034722
        k(   36) = (   0.0000000   0.3333333   0.4166667), wk =   0.0069444
        k(   37) = (   0.0000000   0.3333333  -0.5000000), wk =   0.0069444
        k(   38) = (  -0.0000000   0.3333333  -0.4166667), wk =   0.0069444
        k(   39) = (   0.0000000   0.3333333  -0.3333333), wk =   0.0034722
        k(   40) = (   0.0000000   0.4166667   0.4166667), wk =   0.0034722
        k(   41) = (   0.0000000   0.4166667  -0.5000000), wk =   0.0069444
        k(   42) = (  -0.0000000   0.4166667  -0.4166667), wk =   0.0034722
        k(   43) = (   0.0000000  -0.5000000  -0.5000000), wk =   0.0017361
        k(   44) = (   0.0833333   0.0833333   0.0833333), wk =   0.0011574
        k(   45) = (   0.0833333   0.0833333   0.1666667), wk =   0.0034722
        k(   46) = (   0.0833333   0.0833333   0.2500000), wk =   0.0034722
        k(   47) = (   0.0833333   0.0833333   0.3333333), wk =   0.0034722
        k(   48) = (   0.0833333   0.0833333   0.4166667), wk =   0.0034722
        k(   49) = (   0.0833333   0.0833333  -0.5000000), wk =   0.0034722
        k(   50) = (   0.0833333   0.0833333  -0.4166667), wk =   0.0034722
        k(   51) = (   0.0833333   0.0833333  -0.3333333), wk =   0.0034722
        k(   52) = (   0.0833333   0.0833333  -0.2500000), wk =   0.0034722
        k(   53) = (   0.0833333   0.0833333  -0.1666667), wk =   0.0034722
        k(   54) = (   0.0833333   0.0833333  -0.0833333), wk =   0.0034722
        k(   55) = (   0.0833333   0.1666667   0.1666667), wk =   0.0034722
        k(   56) = (   0.0833333   0.1666667   0.2500000), wk =   0.0069444
        k(   57) = (   0.0833333   0.1666667   0.3333333), wk =   0.0069444
        k(   58) = (   0.0833333   0.1666667   0.4166667), wk =   0.0069444
        k(   59) = (   0.0833333   0.1666667  -0.5000000), wk =   0.0069444
        k(   60) = (   0.0833333   0.1666667  -0.4166667), wk =   0.0069444
        k(   61) = (   0.0833333   0.1666667  -0.3333333), wk =   0.0069444
        k(   62) = (   0.0833333   0.1666667  -0.2500000), wk =   0.0069444
        k(   63) = (   0.0833333   0.1666667  -0.1666667), wk =   0.0069444
        k(   64) = (   0.0833333   0.1666667  -0.0833333), wk =   0.0069444
        k(   65) = (   0.0833333   0.2500000   0.2500000), wk =   0.0034722
        k(   66) = (   0.0833333   0.2500000   0.3333333), wk =   0.0069444
        k(   67) = (   0.0833333   0.2500000   0.4166667), wk =   0.0069444
        k(   68) = (   0.0833333   0.2500000  -0.5000000), wk =   0.0069444
        k(   69) = (   0.0833333   0.2500000  -0.4166667), wk =   0.0069444
        k(   70) = (   0.0833333   0.2500000  -0.3333333), wk =   0.0069444
        k(   71) = (   0.0833333   0.2500000  -0.2500000), wk =   0.0069444
        k(   72) = (   0.0833333   0.2500000  -0.1666667), wk =   0.0069444
        k(   73) = (   0.0833333   0.2500000  -0.0833333), wk =   0.0069444
        k(   74) = (   0.0833333   0.3333333   0.3333333), wk =   0.0034722
        k(   75) = (   0.0833333   0.3333333   0.4166667), wk =   0.0069444
        k(   76) = (   0.0833333   0.3333333  -0.5000000), wk =   0.0069444
        k(   77) = (   0.0833333   0.3333333  -0.4166667), wk =   0.0069444
        k(   78) = (   0.0833333   0.3333333  -0.3333333), wk =   0.0069444
        k(   79) = (   0.0833333   0.3333333  -0.2500000), wk =   0.0069444
        k(   80) = (   0.0833333   0.3333333  -0.1666667), wk =   0.0069444
        k(   81) = (   0.0833333   0.3333333  -0.0833333), wk =   0.0069444
        k(   82) = (   0.0833333   0.4166667   0.4166667), wk =   0.0034722
        k(   83) = (   0.0833333   0.4166667  -0.5000000), wk =   0.0069444
        k(   84) = (   0.0833333   0.4166667  -0.4166667), wk =   0.0069444
        k(   85) = (   0.0833333   0.4166667  -0.3333333), wk =   0.0069444
        k(   86) = (   0.0833333   0.4166667  -0.2500000), wk =   0.0069444
        k(   87) = (   0.0833333   0.4166667  -0.1666667), wk =   0.0069444
        k(   88) = (   0.0833333   0.4166667  -0.0833333), wk =   0.0069444
        k(   89) = (   0.0833333  -0.5000000  -0.5000000), wk =   0.0034722
        k(   90) = (   0.0833333  -0.5000000  -0.4166667), wk =   0.0069444
        k(   91) = (   0.0833333  -0.5000000  -0.3333333), wk =   0.0069444
        k(   92) = (   0.0833333  -0.5000000  -0.2500000), wk =   0.0069444
        k(   93) = (   0.0833333  -0.5000000  -0.1666667), wk =   0.0069444
        k(   94) = (   0.0833333  -0.5000000  -0.0833333), wk =   0.0034722
        k(   95) = (   0.0833333  -0.4166667  -0.4166667), wk =   0.0034722
        k(   96) = (   0.0833333  -0.4166667  -0.3333333), wk =   0.0069444
        k(   97) = (   0.0833333  -0.4166667  -0.2500000), wk =   0.0069444
        k(   98) = (   0.0833333  -0.4166667  -0.1666667), wk =   0.0069444
        k(   99) = (   0.0833333  -0.3333333  -0.3333333), wk =   0.0034722
        k(  100) = (   0.0833333  -0.3333333  -0.2500000), wk =   0.0069444
        k(  101) = (   0.0833333  -0.3333333  -0.1666667), wk =   0.0069444
        k(  102) = (   0.0833333  -0.2500000  -0.2500000), wk =   0.0034722
        k(  103) = (   0.0833333  -0.2500000  -0.1666667), wk =   0.0069444
        k(  104) = (   0.0833333  -0.1666667  -0.1666667), wk =   0.0034722
        k(  105) = (   0.1666667   0.1666667   0.1666667), wk =   0.0011574
        k(  106) = (   0.1666667   0.1666667   0.2500000), wk =   0.0034722
        k(  107) = (   0.1666667   0.1666667   0.3333333), wk =   0.0034722
        k(  108) = (   0.1666667   0.1666667   0.4166667), wk =   0.0034722
        k(  109) = (   0.1666667   0.1666667  -0.5000000), wk =   0.0034722
        k(  110) = (   0.1666667   0.1666667  -0.4166667), wk =   0.0034722
        k(  111) = (   0.1666667   0.1666667  -0.3333333), wk =   0.0034722
        k(  112) = (   0.1666667   0.1666667  -0.2500000), wk =   0.0034722
        k(  113) = (   0.1666667   0.1666667  -0.1666667), wk =   0.0034722
        k(  114) = (   0.1666667   0.2500000   0.2500000), wk =   0.0034722
        k(  115) = (   0.1666667   0.2500000   0.3333333), wk =   0.0069444
        k(  116) = (   0.1666667   0.2500000   0.4166667), wk =   0.0069444
        k(  117) = (   0.1666667   0.2500000  -0.5000000), wk =   0.0069444
        k(  118) = (   0.1666667   0.2500000  -0.4166667), wk =   0.0069444
        k(  119) = (   0.1666667   0.2500000  -0.3333333), wk =   0.0069444
        k(  120) = (   0.1666667   0.2500000  -0.2500000), wk =   0.0069444
        k(  121) = (   0.1666667   0.2500000  -0.1666667), wk =   0.0069444
        k(  122) = (   0.1666667   0.3333333   0.3333333), wk =   0.0034722
        k(  123) = (   0.1666667   0.3333333   0.4166667), wk =   0.0069444
        k(  124) = (   0.1666667   0.3333333  -0.5000000), wk =   0.0069444
        k(  125) = (   0.1666667   0.3333333  -0.4166667), wk =   0.0069444
        k(  126) = (   0.1666667   0.3333333  -0.3333333), wk =   0.0069444
        k(  127) = (   0.1666667   0.3333333  -0.2500000), wk =   0.0069444
        k(  128) = (   0.1666667   0.3333333  -0.1666667), wk =   0.0069444
        k(  129) = (   0.1666667   0.4166667   0.4166667), wk =   0.0034722
        k(  130) = (   0.1666667   0.4166667  -0.5000000), wk =   0.0069444
        k(  131) = (   0.1666667   0.4166667  -0.4166667), wk =   0.0069444
        k(  132) = (   0.1666667   0.4166667  -0.3333333), wk =   0.0069444
        k(  133) = (   0.1666667   0.4166667  -0.2500000), wk =   0.0069444
        k(  134) = (   0.1666667   0.4166667  -0.1666667), wk =   0.0069444
        k(  135) = (   0.1666667  -0.5000000  -0.5000000), wk =   0.0034722
        k(  136) = (   0.1666667  -0.5000000  -0.4166667), wk =   0.0069444
        k(  137) = (   0.1666667  -0.5000000  -0.3333333), wk =   0.0069444
        k(  138) = (   0.1666667  -0.5000000  -0.2500000), wk =   0.0069444
        k(  139) = (   0.1666667  -0.5000000  -0.1666667), wk =   0.0034722
        k(  140) = (   0.1666667  -0.4166667  -0.4166667), wk =   0.0034722
        k(  141) = (   0.1666667  -0.4166667  -0.3333333), wk =   0.0069444
        k(  142) = (   0.1666667  -0.4166667  -0.2500000), wk =   0.0069444
        k(  143) = (   0.1666667  -0.3333333  -0.3333333), wk =   0.0034722
        k(  144) = (   0.1666667  -0.3333333  -0.2500000), wk =   0.0069444
        k(  145) = (   0.1666667  -0.2500000  -0.2500000), wk =   0.0034722
        k(  146) = (   0.2500000   0.2500000   0.2500000), wk =   0.0011574
        k(  147) = (   0.2500000   0.2500000   0.3333333), wk =   0.0034722
        k(  148) = (   0.2500000   0.2500000   0.4166667), wk =   0.0034722
        k(  149) = (   0.2500000   0.2500000  -0.5000000), wk =   0.0034722
        k(  150) = (   0.2500000   0.2500000  -0.4166667), wk =   0.0034722
        k(  151) = (   0.2500000   0.2500000  -0.3333333), wk =   0.0034722
        k(  152) = (   0.2500000   0.2500000  -0.2500000), wk =   0.0034722
        k(  153) = (   0.2500000   0.3333333   0.3333333), wk =   0.0034722
        k(  154) = (   0.2500000   0.3333333   0.4166667), wk =   0.0069444
        k(  155) = (   0.2500000   0.3333333  -0.5000000), wk =   0.0069444
        k(  156) = (   0.2500000   0.3333333  -0.4166667), wk =   0.0069444
        k(  157) = (   0.2500000   0.3333333  -0.3333333), wk =   0.0069444
        k(  158) = (   0.2500000   0.3333333  -0.2500000), wk =   0.0069444
        k(  159) = (   0.2500000   0.4166667   0.4166667), wk =   0.0034722
        k(  160) = (   0.2500000   0.4166667  -0.5000000), wk =   0.0069444
        k(  161) = (   0.2500000   0.4166667  -0.4166667), wk =   0.0069444
        k(  162) = (   0.2500000   0.4166667  -0.3333333), wk =   0.0069444
        k(  163) = (   0.2500000   0.4166667  -0.2500000), wk =   0.0069444
        k(  164) = (   0.2500000  -0.5000000  -0.5000000), wk =   0.0034722
        k(  165) = (   0.2500000  -0.5000000  -0.4166667), wk =   0.0069444
        k(  166) = (   0.2500000  -0.5000000  -0.3333333), wk =   0.0069444
        k(  167) = (   0.2500000  -0.5000000  -0.2500000), wk =   0.0034722
        k(  168) = (   0.2500000  -0.4166667  -0.4166667), wk =   0.0034722
        k(  169) = (   0.2500000  -0.4166667  -0.3333333), wk =   0.0069444
        k(  170) = (   0.2500000  -0.3333333  -0.3333333), wk =   0.0034722
        k(  171) = (   0.3333333   0.3333333   0.3333333), wk =   0.0011574
        k(  172) = (   0.3333333   0.3333333   0.4166667), wk =   0.0034722
        k(  173) = (   0.3333333   0.3333333  -0.5000000), wk =   0.0034722
        k(  174) = (   0.3333333   0.3333333  -0.4166667), wk =   0.0034722
        k(  175) = (   0.3333333   0.3333333  -0.3333333), wk =   0.0034722
        k(  176) = (   0.3333333   0.4166667   0.4166667), wk =   0.0034722
        k(  177) = (   0.3333333   0.4166667  -0.5000000), wk =   0.0069444
        k(  178) = (   0.3333333   0.4166667  -0.4166667), wk =   0.0069444
        k(  179) = (   0.3333333   0.4166667  -0.3333333), wk =   0.0069444
        k(  180) = (   0.3333333  -0.5000000  -0.5000000), wk =   0.0034722
        k(  181) = (   0.3333333  -0.5000000  -0.4166667), wk =   0.0069444
        k(  182) = (   0.3333333  -0.5000000  -0.3333333), wk =   0.0034722
        k(  183) = (   0.3333333  -0.4166667  -0.4166667), wk =   0.0034722
        k(  184) = (   0.4166667   0.4166667   0.4166667), wk =   0.0011574
        k(  185) = (   0.4166667   0.4166667  -0.5000000), wk =   0.0034722
        k(  186) = (   0.4166667   0.4166667  -0.4166667), wk =   0.0034722
        k(  187) = (   0.4166667  -0.5000000  -0.5000000), wk =   0.0034722
        k(  188) = (   0.4166667  -0.5000000  -0.4166667), wk =   0.0034722
        k(  189) = (  -0.5000000  -0.5000000  -0.5000000), wk =   0.0005787

     Dense  grid:    60755 G-vectors     FFT dimensions: (  75,  75,  75)

     Smooth grid:    11627 G-vectors     FFT dimensions: (  45,  45,  45)

     Dynamical RAM for                 wfc:       0.67 MB

     Dynamical RAM for     wfc (w. buffer):       0.67 MB

     Dynamical RAM for             U proj.:       0.22 MB

     Dynamical RAM for  U proj. (w. buff.):       0.22 MB

     Dynamical RAM for           str. fact:       2.78 MB

     Dynamical RAM for           local pot:       0.00 MB

     Dynamical RAM for          nlocal pot:       1.38 MB

     Dynamical RAM for                qrad:       5.90 MB

     Dynamical RAM for          rho,v,vnew:      24.87 MB

     Dynamical RAM for           G-vectors:       3.57 MB

     Dynamical RAM for          h,s,v(r/c):       0.16 MB

     Dynamical RAM for          <psi|beta>:       0.03 MB

     Dynamical RAM for                 psi:       1.34 MB

     Dynamical RAM for                hpsi:       1.34 MB

     Dynamical RAM for                spsi:       1.34 MB

     Dynamical RAM for      wfcinit/wfcrot:       1.54 MB

     Dynamical RAM for           addusdens:     175.21 MB

     Estimated static dynamical RAM per process >      62.41 MB

     Estimated max dynamical RAM per process >     237.62 MB

     Check: negative core charge=   -0.000010
     Generating pointlists ...
     new r_m :   0.2063 (alat units)  1.6253 (a.u.) for type    1
     new r_m :   0.2063 (alat units)  1.6253 (a.u.) for type    2
     new r_m :   0.2063 (alat units)  1.6253 (a.u.) for type    3

     The potential is recalculated from file :
     ./nio_hub.save/charge-density


     HUBBARD ENERGY =    0.1364  (Ry)
     Number of +U iterations with fixed ns =  0
     Starting occupations:

     Hubbard parameters (eV):
     U(  2) =  4.6000
     U(  3) =  4.6000

     ================= HUBBARD OCCUPATIONS ================
     --------------------- ATOM    3 ----------------------
     Tr[ns] (up, down, total) =   4.97704  3.44207  8.41911
     Atomic magnetic moment =   1.53497
     SPIN  1
     eigenvalues:
       0.994  0.994  0.996  0.996  0.996
     eigenvectors (columns):
      -0.482 -0.876 -0.013  0.001 -0.000
      -0.010 -0.000  0.353 -0.736  0.577
       0.005 -0.009  0.461  0.674  0.577
      -0.876  0.482  0.001  0.013  0.000
      -0.005 -0.009  0.814 -0.063 -0.577
     occupation matrix ns (before diag.):
       0.994 -0.000 -0.000 -0.000 -0.000
      -0.000  0.996  0.000 -0.000 -0.000
      -0.000  0.000  0.996  0.000 -0.000
      -0.000 -0.000  0.000  0.994 -0.000
      -0.000 -0.000 -0.000 -0.000  0.996
     SPIN  2
     eigenvalues:
       0.233  0.233  0.992  0.992  0.992
     eigenvectors (columns):
       0.601 -0.799 -0.001  0.000 -0.000
      -0.001 -0.000 -0.387  0.719 -0.577
       0.000  0.001 -0.429 -0.695 -0.577
       0.799  0.601  0.000  0.001 -0.000
      -0.000  0.001 -0.816  0.024  0.577
     occupation matrix ns (before diag.):
       0.233  0.000  0.000 -0.000  0.000
       0.000  0.992  0.000  0.000 -0.000
       0.000  0.000  0.992 -0.000 -0.000
      -0.000  0.000 -0.000  0.233 -0.000
       0.000 -0.000 -0.000 -0.000  0.992
     --------------------- ATOM    4 ----------------------
     Tr[ns] (up, down, total) =   3.44207  4.97704  8.41911
     Atomic magnetic moment =  -1.53497
     SPIN  1
     eigenvalues:
       0.233  0.233  0.992  0.992  0.992
     eigenvectors (columns):
      -0.481 -0.877 -0.001  0.000 -0.000
       0.001  0.000 -0.398  0.713 -0.577
      -0.000  0.001 -0.419 -0.701 -0.577
      -0.877  0.481  0.000  0.001 -0.000
       0.000  0.001 -0.816  0.012  0.577
     occupation matrix ns (before diag.):
       0.233  0.000  0.000 -0.000  0.000
       0.000  0.992  0.000  0.000 -0.000
       0.000  0.000  0.992 -0.000 -0.000
      -0.000  0.000 -0.000  0.233 -0.000
       0.000 -0.000 -0.000 -0.000  0.992
     SPIN  2
     eigenvalues:
       0.994  0.994  0.996  0.996  0.996
     eigenvectors (columns):
      -0.335 -0.942 -0.013  0.001 -0.000
      -0.010 -0.002  0.371 -0.727  0.577
       0.007 -0.008  0.444  0.685  0.577
      -0.942  0.335  0.001  0.013  0.000
      -0.003 -0.010  0.815 -0.042 -0.577
     occupation matrix ns (before diag.):
       0.994 -0.000 -0.000 -0.000 -0.000
      -0.000  0.996  0.000 -0.000 -0.000
      -0.000  0.000  0.996  0.000 -0.000
      -0.000 -0.000  0.000  0.994 -0.000
      -0.000 -0.000 -0.000 -0.000  0.996

     Number of occupied Hubbard levels =   16.8382
 Atomic wfc used for LDA+U Projector are NOT orthogonalized
     Starting wfcs are   34 randomized atomic wfcs

     Band Structure Calculation
     Davidson diagonalization with overlap

     Computing kpt #:     1  of   378
     total cpu time spent up to now is        7.1 secs

     Computing kpt #:     2  of   378
     total cpu time spent up to now is        8.7 secs

     Computing kpt #:     3  of   378
     total cpu time spent up to now is       10.0 secs

     Computing kpt #:     4  of   378
     total cpu time spent up to now is       11.3 secs

     Computing kpt #:     5  of   378
     total cpu time spent up to now is       12.9 secs

     Computing kpt #:     6  of   378
     total cpu time spent up to now is       14.5 secs

     Computing kpt #:     7  of   378
     total cpu time spent up to now is       16.0 secs

     Computing kpt #:     8  of   378
     total cpu time spent up to now is       17.5 secs

     Computing kpt #:     9  of   378
     total cpu time spent up to now is       19.0 secs

     Computing kpt #:    10  of   378
     total cpu time spent up to now is       20.3 secs

     Computing kpt #:    11  of   378
     total cpu time spent up to now is       21.8 secs

     Computing kpt #:    12  of   378
     total cpu time spent up to now is       23.4 secs

     Computing kpt #:    13  of   378
     total cpu time spent up to now is       25.0 secs

     Computing kpt #:    14  of   378
     total cpu time spent up to now is       26.7 secs

     Computing kpt #:    15  of   378
     total cpu time spent up to now is       28.3 secs

     Computing kpt #:    16  of   378
     total cpu time spent up to now is       29.9 secs

     Computing kpt #:    17  of   378
     total cpu time spent up to now is       31.3 secs

     Computing kpt #:    18  of   378
     total cpu time spent up to now is       32.6 secs

     Computing kpt #:    19  of   378
     total cpu time spent up to now is       34.3 secs

     Computing kpt #:    20  of   378
     total cpu time spent up to now is       35.7 secs

     Computing kpt #:    21  of   378
     total cpu time spent up to now is       37.3 secs

     Computing kpt #:    22  of   378
     total cpu time spent up to now is       38.9 secs

     Computing kpt #:    23  of   378
     total cpu time spent up to now is       40.5 secs

     Computing kpt #:    24  of   378
     total cpu time spent up to now is       42.2 secs

     Computing kpt #:    25  of   378
     total cpu time spent up to now is       43.8 secs

     Computing kpt #:    26  of   378
     total cpu time spent up to now is       45.4 secs

     Computing kpt #:    27  of   378
     total cpu time spent up to now is       47.0 secs

     Computing kpt #:    28  of   378
     total cpu time spent up to now is       48.7 secs

     Computing kpt #:    29  of   378
     total cpu time spent up to now is       50.5 secs

     Computing kpt #:    30  of   378
     total cpu time spent up to now is       52.1 secs

     Computing kpt #:    31  of   378
     total cpu time spent up to now is       53.9 secs

     Computing kpt #:    32  of   378
     total cpu time spent up to now is       55.7 secs

     Computing kpt #:    33  of   378
     total cpu time spent up to now is       57.3 secs

     Computing kpt #:    34  of   378
     total cpu time spent up to now is       59.0 secs

     Computing kpt #:    35  of   378
     total cpu time spent up to now is       60.5 secs

     Computing kpt #:    36  of   378
     total cpu time spent up to now is       62.1 secs

     Computing kpt #:    37  of   378
     total cpu time spent up to now is       63.7 secs

     Computing kpt #:    38  of   378
     total cpu time spent up to now is       65.3 secs

     Computing kpt #:    39  of   378
     total cpu time spent up to now is       66.8 secs

     Computing kpt #:    40  of   378
     total cpu time spent up to now is       68.5 secs

     Computing kpt #:    41  of   378
     total cpu time spent up to now is       70.1 secs

     Computing kpt #:    42  of   378
     total cpu time spent up to now is       71.7 secs

     Computing kpt #:    43  of   378
     total cpu time spent up to now is       73.3 secs

     Computing kpt #:    44  of   378
     total cpu time spent up to now is       74.6 secs

     Computing kpt #:    45  of   378
     total cpu time spent up to now is       76.3 secs

     Computing kpt #:    46  of   378
     total cpu time spent up to now is       77.9 secs

     Computing kpt #:    47  of   378
     total cpu time spent up to now is       79.4 secs

     Computing kpt #:    48  of   378
     total cpu time spent up to now is       81.0 secs

     Computing kpt #:    49  of   378
     total cpu time spent up to now is       82.6 secs

     Computing kpt #:    50  of   378
     total cpu time spent up to now is       84.2 secs

     Computing kpt #:    51  of   378
     total cpu time spent up to now is       85.8 secs

     Computing kpt #:    52  of   378
     total cpu time spent up to now is       87.3 secs

     Computing kpt #:    53  of   378
     total cpu time spent up to now is       88.6 secs

     Computing kpt #:    54  of   378
     total cpu time spent up to now is       90.1 secs

     Computing kpt #:    55  of   378
     total cpu time spent up to now is       91.8 secs

     Computing kpt #:    56  of   378
     total cpu time spent up to now is       93.3 secs

     Computing kpt #:    57  of   378
     total cpu time spent up to now is       94.9 secs

     Computing kpt #:    58  of   378
     total cpu time spent up to now is       96.3 secs

     Computing kpt #:    59  of   378
     total cpu time spent up to now is       97.9 secs

     Computing kpt #:    60  of   378
     total cpu time spent up to now is       99.4 secs

     Computing kpt #:    61  of   378
     total cpu time spent up to now is      101.0 secs

     Computing kpt #:    62  of   378
     total cpu time spent up to now is      102.7 secs

     Computing kpt #:    63  of   378
     total cpu time spent up to now is      104.3 secs

     Computing kpt #:    64  of   378
     total cpu time spent up to now is      105.8 secs

     Computing kpt #:    65  of   378
     total cpu time spent up to now is      107.4 secs

     Computing kpt #:    66  of   378
     total cpu time spent up to now is      109.1 secs

     Computing kpt #:    67  of   378
     total cpu time spent up to now is      110.8 secs

     Computing kpt #:    68  of   378
     total cpu time spent up to now is      112.7 secs

     Computing kpt #:    69  of   378
     total cpu time spent up to now is      114.4 secs

     Computing kpt #:    70  of   378
     total cpu time spent up to now is      116.0 secs

     Computing kpt #:    71  of   378
     total cpu time spent up to now is      117.6 secs

     Computing kpt #:    72  of   378
     total cpu time spent up to now is      119.2 secs

     Computing kpt #:    73  of   378
     total cpu time spent up to now is      120.5 secs

     Computing kpt #:    74  of   378
     total cpu time spent up to now is      122.1 secs

     Computing kpt #:    75  of   378
     total cpu time spent up to now is      123.7 secs

     Computing kpt #:    76  of   378
     total cpu time spent up to now is      125.2 secs

     Computing kpt #:    77  of   378
     total cpu time spent up to now is      126.8 secs

     Computing kpt #:    78  of   378
     total cpu time spent up to now is      128.3 secs

     Computing kpt #:    79  of   378
     total cpu time spent up to now is      129.9 secs

     Computing kpt #:    80  of   378
     total cpu time spent up to now is      131.6 secs

     Computing kpt #:    81  of   378
     total cpu time spent up to now is      133.1 secs

     Computing kpt #:    82  of   378
     total cpu time spent up to now is      134.6 secs

     Computing kpt #:    83  of   378
     total cpu time spent up to now is      136.1 secs

     Computing kpt #:    84  of   378
     total cpu time spent up to now is      137.7 secs

     Computing kpt #:    85  of   378
     total cpu time spent up to now is      139.3 secs

     Computing kpt #:    86  of   378
     total cpu time spent up to now is      140.8 secs

     Computing kpt #:    87  of   378
     total cpu time spent up to now is      142.4 secs

     Computing kpt #:    88  of   378
     total cpu time spent up to now is      144.0 secs

     Computing kpt #:    89  of   378
     total cpu time spent up to now is      145.5 secs

     Computing kpt #:    90  of   378
     total cpu time spent up to now is      147.0 secs

     Computing kpt #:    91  of   378
     total cpu time spent up to now is      148.5 secs

     Computing kpt #:    92  of   378
     total cpu time spent up to now is      150.1 secs

     Computing kpt #:    93  of   378
     total cpu time spent up to now is      151.8 secs

     Computing kpt #:    94  of   378
     total cpu time spent up to now is      153.4 secs

     Computing kpt #:    95  of   378
     total cpu time spent up to now is      154.8 secs

     Computing kpt #:    96  of   378
     total cpu time spent up to now is      156.4 secs

     Computing kpt #:    97  of   378
     total cpu time spent up to now is      157.9 secs

     Computing kpt #:    98  of   378
     total cpu time spent up to now is      159.5 secs

     Computing kpt #:    99  of   378
     total cpu time spent up to now is      161.1 secs

     Computing kpt #:   100  of   378
     total cpu time spent up to now is      162.7 secs

     Computing kpt #:   101  of   378
     total cpu time spent up to now is      164.2 secs

     Computing kpt #:   102  of   378
     total cpu time spent up to now is      165.8 secs

     Computing kpt #:   103  of   378
     total cpu time spent up to now is      167.3 secs

     Computing kpt #:   104  of   378
     total cpu time spent up to now is      168.8 secs

     Computing kpt #:   105  of   378
     total cpu time spent up to now is      170.3 secs

     Computing kpt #:   106  of   378
     total cpu time spent up to now is      171.8 secs

     Computing kpt #:   107  of   378
     total cpu time spent up to now is      173.3 secs

     Computing kpt #:   108  of   378
     total cpu time spent up to now is      174.8 secs

     Computing kpt #:   109  of   378
     total cpu time spent up to now is      176.3 secs

     Computing kpt #:   110  of   378
     total cpu time spent up to now is      177.9 secs

     Computing kpt #:   111  of   378
     total cpu time spent up to now is      179.4 secs

     Computing kpt #:   112  of   378
     total cpu time spent up to now is      181.0 secs

     Computing kpt #:   113  of   378
     total cpu time spent up to now is      182.6 secs

     Computing kpt #:   114  of   378
     total cpu time spent up to now is      184.1 secs

     Computing kpt #:   115  of   378
     total cpu time spent up to now is      185.6 secs

     Computing kpt #:   116  of   378
     total cpu time spent up to now is      187.0 secs

     Computing kpt #:   117  of   378
     total cpu time spent up to now is      188.6 secs

     Computing kpt #:   118  of   378
     total cpu time spent up to now is      190.1 secs

     Computing kpt #:   119  of   378
     total cpu time spent up to now is      191.6 secs

     Computing kpt #:   120  of   378
     total cpu time spent up to now is      193.4 secs

     Computing kpt #:   121  of   378
     total cpu time spent up to now is      195.0 secs

     Computing kpt #:   122  of   378
     total cpu time spent up to now is      196.5 secs

     Computing kpt #:   123  of   378
     total cpu time spent up to now is      198.0 secs

     Computing kpt #:   124  of   378
     total cpu time spent up to now is      199.6 secs

     Computing kpt #:   125  of   378
     total cpu time spent up to now is      201.1 secs

     Computing kpt #:   126  of   378
     total cpu time spent up to now is      202.7 secs

     Computing kpt #:   127  of   378
     total cpu time spent up to now is      204.2 secs

     Computing kpt #:   128  of   378
     total cpu time spent up to now is      205.8 secs

     Computing kpt #:   129  of   378
     total cpu time spent up to now is      207.3 secs

     Computing kpt #:   130  of   378
     total cpu time spent up to now is      208.9 secs

     Computing kpt #:   131  of   378
     total cpu time spent up to now is      210.5 secs

     Computing kpt #:   132  of   378
     total cpu time spent up to now is      212.1 secs

     Computing kpt #:   133  of   378
     total cpu time spent up to now is      213.7 secs

     Computing kpt #:   134  of   378
     total cpu time spent up to now is      215.4 secs

     Computing kpt #:   135  of   378
     total cpu time spent up to now is      216.9 secs

     Computing kpt #:   136  of   378
     total cpu time spent up to now is      218.5 secs

     Computing kpt #:   137  of   378
     total cpu time spent up to now is      220.1 secs

     Computing kpt #:   138  of   378
     total cpu time spent up to now is      221.7 secs

     Computing kpt #:   139  of   378
     total cpu time spent up to now is      223.3 secs

     Computing kpt #:   140  of   378
     total cpu time spent up to now is      224.8 secs

     Computing kpt #:   141  of   378
     total cpu time spent up to now is      226.3 secs

     Computing kpt #:   142  of   378
     total cpu time spent up to now is      227.9 secs

     Computing kpt #:   143  of   378
     total cpu time spent up to now is      229.4 secs

     Computing kpt #:   144  of   378
     total cpu time spent up to now is      230.9 secs

     Computing kpt #:   145  of   378
     total cpu time spent up to now is      232.7 secs

     Computing kpt #:   146  of   378
     total cpu time spent up to now is      234.2 secs

     Computing kpt #:   147  of   378
     total cpu time spent up to now is      235.7 secs

     Computing kpt #:   148  of   378
     total cpu time spent up to now is      237.2 secs

     Computing kpt #:   149  of   378
     total cpu time spent up to now is      238.7 secs

     Computing kpt #:   150  of   378
     total cpu time spent up to now is      240.4 secs

     Computing kpt #:   151  of   378
     total cpu time spent up to now is      241.9 secs

     Computing kpt #:   152  of   378
     total cpu time spent up to now is      243.4 secs

     Computing kpt #:   153  of   378
     total cpu time spent up to now is      245.1 secs

     Computing kpt #:   154  of   378
     total cpu time spent up to now is      246.6 secs

     Computing kpt #:   155  of   378
     total cpu time spent up to now is      248.2 secs

     Computing kpt #:   156  of   378
     total cpu time spent up to now is      249.8 secs

     Computing kpt #:   157  of   378
     total cpu time spent up to now is      251.3 secs

     Computing kpt #:   158  of   378
     total cpu time spent up to now is      252.8 secs

     Computing kpt #:   159  of   378
     total cpu time spent up to now is      254.4 secs

     Computing kpt #:   160  of   378
     total cpu time spent up to now is      256.2 secs

     Computing kpt #:   161  of   378
     total cpu time spent up to now is      257.8 secs

     Computing kpt #:   162  of   378
     total cpu time spent up to now is      259.3 secs

     Computing kpt #:   163  of   378
     total cpu time spent up to now is      260.9 secs

     Computing kpt #:   164  of   378
     total cpu time spent up to now is      262.6 secs

     Computing kpt #:   165  of   378
     total cpu time spent up to now is      264.1 secs

     Computing kpt #:   166  of   378
     total cpu time spent up to now is      265.7 secs

     Computing kpt #:   167  of   378
     total cpu time spent up to now is      267.2 secs

     Computing kpt #:   168  of   378
     total cpu time spent up to now is      268.8 secs

     Computing kpt #:   169  of   378
     total cpu time spent up to now is      270.3 secs

     Computing kpt #:   170  of   378
     total cpu time spent up to now is      271.8 secs

     Computing kpt #:   171  of   378
     total cpu time spent up to now is      273.3 secs

     Computing kpt #:   172  of   378
     total cpu time spent up to now is      274.8 secs

     Computing kpt #:   173  of   378
     total cpu time spent up to now is      276.3 secs

     Computing kpt #:   174  of   378
     total cpu time spent up to now is      277.9 secs

     Computing kpt #:   175  of   378
     total cpu time spent up to now is      279.5 secs

     Computing kpt #:   176  of   378
     total cpu time spent up to now is      281.0 secs

     Computing kpt #:   177  of   378
     total cpu time spent up to now is      282.6 secs

     Computing kpt #:   178  of   378
     total cpu time spent up to now is      284.2 secs

     Computing kpt #:   179  of   378
     total cpu time spent up to now is      285.8 secs

     Computing kpt #:   180  of   378
     total cpu time spent up to now is      287.3 secs

     Computing kpt #:   181  of   378
     total cpu time spent up to now is      288.9 secs

     Computing kpt #:   182  of   378
     total cpu time spent up to now is      290.4 secs

     Computing kpt #:   183  of   378
     total cpu time spent up to now is      292.0 secs

     Computing kpt #:   184  of   378
     total cpu time spent up to now is      293.5 secs

     Computing kpt #:   185  of   378
     total cpu time spent up to now is      295.0 secs

     Computing kpt #:   186  of   378
     total cpu time spent up to now is      296.7 secs

     Computing kpt #:   187  of   378
     total cpu time spent up to now is      298.3 secs

     Computing kpt #:   188  of   378
     total cpu time spent up to now is      300.0 secs

     Computing kpt #:   189  of   378
     total cpu time spent up to now is      301.4 secs

     Computing kpt #:   190  of   378
     total cpu time spent up to now is      302.8 secs

     Computing kpt #:   191  of   378
     total cpu time spent up to now is      304.3 secs

     Computing kpt #:   192  of   378
     total cpu time spent up to now is      305.8 secs

     Computing kpt #:   193  of   378
     total cpu time spent up to now is      307.5 secs

     Computing kpt #:   194  of   378
     total cpu time spent up to now is      309.2 secs

     Computing kpt #:   195  of   378
     total cpu time spent up to now is      311.0 secs

     Computing kpt #:   196  of   378
     total cpu time spent up to now is      312.9 secs

     Computing kpt #:   197  of   378
     total cpu time spent up to now is      314.8 secs

     Computing kpt #:   198  of   378
     total cpu time spent up to now is      316.5 secs

     Computing kpt #:   199  of   378
     total cpu time spent up to now is      317.9 secs

     Computing kpt #:   200  of   378
     total cpu time spent up to now is      319.4 secs

     Computing kpt #:   201  of   378
     total cpu time spent up to now is      321.1 secs

     Computing kpt #:   202  of   378
     total cpu time spent up to now is      322.6 secs

     Computing kpt #:   203  of   378
     total cpu time spent up to now is      324.2 secs

     Computing kpt #:   204  of   378
     total cpu time spent up to now is      325.7 secs

     Computing kpt #:   205  of   378
     total cpu time spent up to now is      327.3 secs

     Computing kpt #:   206  of   378
     total cpu time spent up to now is      328.6 secs

     Computing kpt #:   207  of   378
     total cpu time spent up to now is      330.2 secs

     Computing kpt #:   208  of   378
     total cpu time spent up to now is      331.7 secs

     Computing kpt #:   209  of   378
     total cpu time spent up to now is      333.2 secs

     Computing kpt #:   210  of   378
     total cpu time spent up to now is      334.7 secs

     Computing kpt #:   211  of   378
     total cpu time spent up to now is      336.3 secs

     Computing kpt #:   212  of   378
     total cpu time spent up to now is      337.8 secs

     Computing kpt #:   213  of   378
     total cpu time spent up to now is      339.4 secs

     Computing kpt #:   214  of   378
     total cpu time spent up to now is      341.0 secs

     Computing kpt #:   215  of   378
     total cpu time spent up to now is      342.5 secs

     Computing kpt #:   216  of   378
     total cpu time spent up to now is      344.0 secs

     Computing kpt #:   217  of   378
     total cpu time spent up to now is      345.5 secs

     Computing kpt #:   218  of   378
     total cpu time spent up to now is      347.1 secs

     Computing kpt #:   219  of   378
     total cpu time spent up to now is      348.7 secs

     Computing kpt #:   220  of   378
     total cpu time spent up to now is      350.3 secs

     Computing kpt #:   221  of   378
     total cpu time spent up to now is      351.9 secs

     Computing kpt #:   222  of   378
     total cpu time spent up to now is      353.7 secs

     Computing kpt #:   223  of   378
     total cpu time spent up to now is      355.3 secs

     Computing kpt #:   224  of   378
     total cpu time spent up to now is      356.8 secs

     Computing kpt #:   225  of   378
     total cpu time spent up to now is      358.4 secs

     Computing kpt #:   226  of   378
     total cpu time spent up to now is      359.9 secs

     Computing kpt #:   227  of   378
     total cpu time spent up to now is      361.5 secs

     Computing kpt #:   228  of   378
     total cpu time spent up to now is      363.1 secs

     Computing kpt #:   229  of   378
     total cpu time spent up to now is      364.6 secs

     Computing kpt #:   230  of   378
     total cpu time spent up to now is      366.1 secs

     Computing kpt #:   231  of   378
     total cpu time spent up to now is      367.7 secs

     Computing kpt #:   232  of   378
     total cpu time spent up to now is      369.1 secs

     Computing kpt #:   233  of   378
     total cpu time spent up to now is      370.4 secs

     Computing kpt #:   234  of   378
     total cpu time spent up to now is      371.9 secs

     Computing kpt #:   235  of   378
     total cpu time spent up to now is      373.4 secs

     Computing kpt #:   236  of   378
     total cpu time spent up to now is      374.9 secs

     Computing kpt #:   237  of   378
     total cpu time spent up to now is      376.5 secs

     Computing kpt #:   238  of   378
     total cpu time spent up to now is      378.3 secs

     Computing kpt #:   239  of   378
     total cpu time spent up to now is      380.0 secs

     Computing kpt #:   240  of   378
     total cpu time spent up to now is      381.6 secs

     Computing kpt #:   241  of   378
     total cpu time spent up to now is      383.2 secs

     Computing kpt #:   242  of   378
     total cpu time spent up to now is      384.7 secs

     Computing kpt #:   243  of   378
     total cpu time spent up to now is      386.1 secs

     Computing kpt #:   244  of   378
     total cpu time spent up to now is      387.6 secs

     Computing kpt #:   245  of   378
     total cpu time spent up to now is      389.1 secs

     Computing kpt #:   246  of   378
     total cpu time spent up to now is      390.4 secs

     Computing kpt #:   247  of   378
     total cpu time spent up to now is      392.0 secs

     Computing kpt #:   248  of   378
     total cpu time spent up to now is      393.7 secs

     Computing kpt #:   249  of   378
     total cpu time spent up to now is      395.2 secs

     Computing kpt #:   250  of   378
     total cpu time spent up to now is      396.8 secs

     Computing kpt #:   251  of   378
     total cpu time spent up to now is      398.4 secs

     Computing kpt #:   252  of   378
     total cpu time spent up to now is      400.0 secs

     Computing kpt #:   253  of   378
     total cpu time spent up to now is      401.6 secs

     Computing kpt #:   254  of   378
     total cpu time spent up to now is      403.3 secs

     Computing kpt #:   255  of   378
     total cpu time spent up to now is      404.9 secs

     Computing kpt #:   256  of   378
     total cpu time spent up to now is      406.4 secs

     Computing kpt #:   257  of   378
     total cpu time spent up to now is      408.0 secs

     Computing kpt #:   258  of   378
     total cpu time spent up to now is      409.6 secs

     Computing kpt #:   259  of   378
     total cpu time spent up to now is      411.1 secs

     Computing kpt #:   260  of   378
     total cpu time spent up to now is      412.7 secs

     Computing kpt #:   261  of   378
     total cpu time spent up to now is      414.3 secs

     Computing kpt #:   262  of   378
     total cpu time spent up to now is      415.9 secs

     Computing kpt #:   263  of   378
     total cpu time spent up to now is      417.5 secs

     Computing kpt #:   264  of   378
     total cpu time spent up to now is      419.1 secs

     Computing kpt #:   265  of   378
     total cpu time spent up to now is      420.6 secs

     Computing kpt #:   266  of   378
     total cpu time spent up to now is      422.3 secs

     Computing kpt #:   267  of   378
     total cpu time spent up to now is      424.1 secs

     Computing kpt #:   268  of   378
     total cpu time spent up to now is      426.0 secs

     Computing kpt #:   269  of   378
     total cpu time spent up to now is      428.0 secs

     Computing kpt #:   270  of   378
     total cpu time spent up to now is      429.9 secs

     Computing kpt #:   271  of   378
     total cpu time spent up to now is      431.6 secs

     Computing kpt #:   272  of   378
     total cpu time spent up to now is      433.3 secs

     Computing kpt #:   273  of   378
     total cpu time spent up to now is      435.1 secs

     Computing kpt #:   274  of   378
     total cpu time spent up to now is      436.9 secs

     Computing kpt #:   275  of   378
     total cpu time spent up to now is      438.7 secs

     Computing kpt #:   276  of   378
     total cpu time spent up to now is      440.5 secs

     Computing kpt #:   277  of   378
     total cpu time spent up to now is      442.3 secs

     Computing kpt #:   278  of   378
     total cpu time spent up to now is      444.0 secs

     Computing kpt #:   279  of   378
     total cpu time spent up to now is      445.7 secs

     Computing kpt #:   280  of   378
     total cpu time spent up to now is      447.5 secs

     Computing kpt #:   281  of   378
     total cpu time spent up to now is      449.2 secs

     Computing kpt #:   282  of   378
     total cpu time spent up to now is      451.0 secs

     Computing kpt #:   283  of   378
     total cpu time spent up to now is      452.8 secs

     Computing kpt #:   284  of   378
     total cpu time spent up to now is      454.5 secs

     Computing kpt #:   285  of   378
     total cpu time spent up to now is      456.2 secs

     Computing kpt #:   286  of   378
     total cpu time spent up to now is      457.9 secs

     Computing kpt #:   287  of   378
     total cpu time spent up to now is      459.7 secs

     Computing kpt #:   288  of   378
     total cpu time spent up to now is      461.4 secs

     Computing kpt #:   289  of   378
     total cpu time spent up to now is      463.1 secs

     Computing kpt #:   290  of   378
     total cpu time spent up to now is      464.9 secs

     Computing kpt #:   291  of   378
     total cpu time spent up to now is      466.6 secs

     Computing kpt #:   292  of   378
     total cpu time spent up to now is      468.4 secs

     Computing kpt #:   293  of   378
     total cpu time spent up to now is      470.0 secs

     Computing kpt #:   294  of   378
     total cpu time spent up to now is      471.6 secs

     Computing kpt #:   295  of   378
     total cpu time spent up to now is      473.4 secs

     Computing kpt #:   296  of   378
     total cpu time spent up to now is      475.0 secs

     Computing kpt #:   297  of   378
     total cpu time spent up to now is      476.7 secs

     Computing kpt #:   298  of   378
     total cpu time spent up to now is      478.4 secs

     Computing kpt #:   299  of   378
     total cpu time spent up to now is      480.1 secs

     Computing kpt #:   300  of   378
     total cpu time spent up to now is      481.8 secs

     Computing kpt #:   301  of   378
     total cpu time spent up to now is      483.6 secs

     Computing kpt #:   302  of   378
     total cpu time spent up to now is      485.4 secs

     Computing kpt #:   303  of   378
     total cpu time spent up to now is      487.1 secs

     Computing kpt #:   304  of   378
     total cpu time spent up to now is      488.9 secs

     Computing kpt #:   305  of   378
     total cpu time spent up to now is      490.6 secs

     Computing kpt #:   306  of   378
     total cpu time spent up to now is      492.4 secs

     Computing kpt #:   307  of   378
     total cpu time spent up to now is      494.1 secs

     Computing kpt #:   308  of   378
     total cpu time spent up to now is      495.8 secs

     Computing kpt #:   309  of   378
     total cpu time spent up to now is      497.5 secs

     Computing kpt #:   310  of   378
     total cpu time spent up to now is      499.3 secs

     Computing kpt #:   311  of   378
     total cpu time spent up to now is      500.9 secs

     Computing kpt #:   312  of   378
     total cpu time spent up to now is      502.7 secs

     Computing kpt #:   313  of   378
     total cpu time spent up to now is      504.4 secs

     Computing kpt #:   314  of   378
     total cpu time spent up to now is      506.2 secs

     Computing kpt #:   315  of   378
     total cpu time spent up to now is      508.1 secs

     Computing kpt #:   316  of   378
     total cpu time spent up to now is      509.8 secs

     Computing kpt #:   317  of   378
     total cpu time spent up to now is      511.8 secs

     Computing kpt #:   318  of   378
     total cpu time spent up to now is      513.6 secs

     Computing kpt #:   319  of   378
     total cpu time spent up to now is      515.3 secs

     Computing kpt #:   320  of   378
     total cpu time spent up to now is      517.1 secs

     Computing kpt #:   321  of   378
     total cpu time spent up to now is      518.9 secs

     Computing kpt #:   322  of   378
     total cpu time spent up to now is      520.6 secs

     Computing kpt #:   323  of   378
     total cpu time spent up to now is      522.4 secs

     Computing kpt #:   324  of   378
     total cpu time spent up to now is      524.1 secs

     Computing kpt #:   325  of   378
     total cpu time spent up to now is      525.8 secs

     Computing kpt #:   326  of   378
     total cpu time spent up to now is      527.5 secs

     Computing kpt #:   327  of   378
     total cpu time spent up to now is      529.4 secs

     Computing kpt #:   328  of   378
     total cpu time spent up to now is      531.1 secs

     Computing kpt #:   329  of   378
     total cpu time spent up to now is      532.6 secs

     Computing kpt #:   330  of   378
     total cpu time spent up to now is      534.3 secs

     Computing kpt #:   331  of   378
     total cpu time spent up to now is      536.1 secs

     Computing kpt #:   332  of   378
     total cpu time spent up to now is      537.7 secs

     Computing kpt #:   333  of   378
     total cpu time spent up to now is      539.5 secs

     Computing kpt #:   334  of   378
     total cpu time spent up to now is      541.2 secs

     Computing kpt #:   335  of   378
     total cpu time spent up to now is      542.9 secs

     Computing kpt #:   336  of   378
     total cpu time spent up to now is      544.7 secs

     Computing kpt #:   337  of   378
     total cpu time spent up to now is      546.4 secs

     Computing kpt #:   338  of   378
     total cpu time spent up to now is      548.0 secs

     Computing kpt #:   339  of   378
     total cpu time spent up to now is      549.6 secs

     Computing kpt #:   340  of   378
     total cpu time spent up to now is      551.2 secs

     Computing kpt #:   341  of   378
     total cpu time spent up to now is      552.8 secs

     Computing kpt #:   342  of   378
     total cpu time spent up to now is      554.5 secs

     Computing kpt #:   343  of   378
     total cpu time spent up to now is      556.1 secs

     Computing kpt #:   344  of   378
     total cpu time spent up to now is      557.6 secs

     Computing kpt #:   345  of   378
     total cpu time spent up to now is      559.2 secs

     Computing kpt #:   346  of   378
     total cpu time spent up to now is      560.7 secs

     Computing kpt #:   347  of   378
     total cpu time spent up to now is      562.4 secs

     Computing kpt #:   348  of   378
     total cpu time spent up to now is      564.0 secs

     Computing kpt #:   349  of   378
     total cpu time spent up to now is      565.8 secs

     Computing kpt #:   350  of   378
     total cpu time spent up to now is      567.4 secs

     Computing kpt #:   351  of   378
     total cpu time spent up to now is      568.9 secs

     Computing kpt #:   352  of   378
     total cpu time spent up to now is      570.4 secs

     Computing kpt #:   353  of   378
     total cpu time spent up to now is      572.0 secs

     Computing kpt #:   354  of   378
     total cpu time spent up to now is      573.5 secs

     Computing kpt #:   355  of   378
     total cpu time spent up to now is      575.1 secs

     Computing kpt #:   356  of   378
     total cpu time spent up to now is      576.7 secs

     Computing kpt #:   357  of   378
     total cpu time spent up to now is      578.2 secs

     Computing kpt #:   358  of   378
     total cpu time spent up to now is      579.7 secs

     Computing kpt #:   359  of   378
     total cpu time spent up to now is      581.2 secs

     Computing kpt #:   360  of   378
     total cpu time spent up to now is      582.7 secs

     Computing kpt #:   361  of   378
     total cpu time spent up to now is      584.3 secs

     Computing kpt #:   362  of   378
     total cpu time spent up to now is      585.8 secs

     Computing kpt #:   363  of   378
     total cpu time spent up to now is      587.4 secs

     Computing kpt #:   364  of   378
     total cpu time spent up to now is      589.0 secs

     Computing kpt #:   365  of   378
     total cpu time spent up to now is      590.6 secs

     Computing kpt #:   366  of   378
     total cpu time spent up to now is      592.2 secs

     Computing kpt #:   367  of   378
     total cpu time spent up to now is      593.8 secs

     Computing kpt #:   368  of   378
     total cpu time spent up to now is      595.5 secs

     Computing kpt #:   369  of   378
     total cpu time spent up to now is      597.1 secs

     Computing kpt #:   370  of   378
     total cpu time spent up to now is      598.7 secs

     Computing kpt #:   371  of   378
     total cpu time spent up to now is      600.3 secs

     Computing kpt #:   372  of   378
     total cpu time spent up to now is      601.9 secs

     Computing kpt #:   373  of   378
     total cpu time spent up to now is      603.3 secs

     Computing kpt #:   374  of   378
     total cpu time spent up to now is      604.9 secs

     Computing kpt #:   375  of   378
[...]
     0.0000   0.0000   0.0000   0.0000   0.0000   0.0000

          k =-0.6250-0.6250 0.8750 (  1463 PWs)   bands (ev):

   -90.5145 -88.2648 -50.8969 -50.8923 -50.8838 -48.7165 -48.7150 -48.7052
    -4.7059  -4.5144   6.7344   7.4019   7.6640   8.1097   8.9285   9.2213
     9.5990  10.3642  10.6002  11.3496  11.4529  11.8673  12.4399  12.6686
    15.9406  16.4388  20.0250  21.1113  25.6867  25.9745

     occupation numbers 
     1.0000   1.0000   1.0000   1.0000   1.0000   1.0000   1.0000   1.0000
     1.0000   1.0000   1.0000   1.0000   1.0000   1.0000   1.0000   1.0000
     1.0000   1.0000   1.0000   1.0000   1.0000   1.0000   1.0000   1.0000
     0.0000   0.0000   0.0000   0.0000   0.0000   0.0000

          k =-0.5000-0.6667 0.8333 (  1461 PWs)   bands (ev):

   -90.5142 -88.2645 -50.8964 -50.8954 -50.8853 -48.7185 -48.7159 -48.7069
    -4.5466  -4.4268   6.5957   7.1767   7.6492   8.2465   8.5585   9.4629
     9.7426  10.1675  10.6515  11.3382  11.4477  11.7888  12.3276  12.6479
    16.0359  16.4047  20.6481  21.2585  25.3372  25.5604

     occupation numbers 
     1.0000   1.0000   1.0000   1.0000   1.0000   1.0000   1.0000   1.0000
     1.0000   1.0000   1.0000   1.0000   1.0000   1.0000   1.0000   1.0000
     1.0000   1.0000   1.0000   1.0000   1.0000   1.0000   1.0000   1.0000
     0.0000   0.0000   0.0000   0.0000   0.0000   0.0000

          k =-0.3750-0.7083 0.7917 (  1463 PWs)   bands (ev):

   -90.5139 -88.2641 -50.8980 -50.8958 -50.8879 -48.7214 -48.7152 -48.7099
    -4.4070  -4.2736   6.5729   7.0245   7.6057   7.9275   8.4619   9.5877
     9.8168  10.1568  10.6679  11.1254  11.5129  11.6234  12.4139  12.6551
    16.1812  16.2740  21.4205  21.5970  24.7296  25.0186

     occupation numbers 
     1.0000   1.0000   1.0000   1.0000   1.0000   1.0000   1.0000   1.0000
     1.0000   1.0000   1.0000   1.0000   1.0000   1.0000   1.0000   1.0000
     1.0000   1.0000   1.0000   1.0000   1.0000   1.0000   1.0000   1.0000
     0.0000   0.0000   0.0000   0.0000   0.0000   0.0000

          k =-0.2500-0.7500 0.7500 (  1448 PWs)   bands (ev):

   -90.5136 -88.2638 -50.8994 -50.8953 -50.8911 -48.7230 -48.7147 -48.7134
    -4.2752  -4.1471   6.7623   6.8688   7.4548   7.5636   8.5482   9.2436
    10.0357  10.4797  10.4883  10.9102  11.4621  11.6784  12.4524  12.5989
    16.2594  16.2800  21.9985  22.1404  24.2402  24.3917

     occupation numbers 
     1.0000   1.0000   1.0000   1.0000   1.0000   1.0000   1.0000   1.0000
     1.0000   1.0000   1.0000   1.0000   1.0000   1.0000   1.0000   1.0000
     1.0000   1.0000   1.0000   1.0000   1.0000   1.0000   1.0000   1.0000
     0.0000   0.0000   0.0000   0.0000   0.0000   0.0000

          k =-0.5417-0.5417 0.7917 (  1461 PWs)   bands (ev):

   -90.5141 -88.2643 -50.8980 -50.8961 -50.8853 -48.7214 -48.7155 -48.7069
    -4.4827  -4.3415   6.3445   7.0539   7.6131   8.2914   8.7972   9.4040
     9.7870  10.3167  10.4223  11.3308  11.5510  11.7705  12.3070  12.4844
    16.0922  16.5808  20.7136  21.0717  24.9426  25.4471

     occupation numbers 
     1.0000   1.0000   1.0000   1.0000   1.0000   1.0000   1.0000   1.0000
     1.0000   1.0000   1.0000   1.0000   1.0000   1.0000   1.0000   1.0000
     1.0000   1.0000   1.0000   1.0000   1.0000   1.0000   1.0000   1.0000
     0.0000   0.0000   0.0000   0.0000   0.0000   0.0000

          k =-0.4167-0.5833 0.7500 (  1459 PWs)   bands (ev):

   -90.5139 -88.2641 -50.9001 -50.8957 -50.8867 -48.7238 -48.7151 -48.7085
    -4.4027  -4.2179   6.2115   7.0296   7.5566   8.2856   8.5255   9.6412
     9.7064  10.3082  10.5135  11.1618  11.5292  11.7177  12.3382  12.5156
    16.2301  16.4880  21.1340  21.1750  24.5773  25.2495

     occupation numbers 
     1.0000   1.0000   1.0000   1.0000   1.0000   1.0000   1.0000   1.0000
     1.0000   1.0000   1.0000   1.0000   1.0000   1.0000   1.0000   1.0000
     1.0000   1.0000   1.0000   1.0000   1.0000   1.0000   1.0000   1.0000
     0.0000   0.0000   0.0000   0.0000   0.0000   0.0000

          k =-0.4583-0.4583 0.7083 (  1466 PWs)   bands (ev):

   -90.5139 -88.2640 -50.9021 -50.8955 -50.8863 -48.7261 -48.7149 -48.7081
    -4.3740  -4.1472   5.9775   7.0639   7.5580   8.2075   8.6870   9.6864
     9.6878  10.2759  10.5830  11.0690  11.5351  11.7687  12.2713  12.4859
    16.3339  16.5788  20.9618  20.9925  24.5036  25.2335

     occupation numbers 
     1.0000   1.0000   1.0000   1.0000   1.0000   1.0000   1.0000   1.0000
     1.0000   1.0000   1.0000   1.0000   1.0000   1.0000   1.0000   1.0000
     1.0000   1.0000   1.0000   1.0000   1.0000   1.0000   1.0000   1.0000
     0.0000   0.0000   0.0000   0.0000   0.0000   0.0000

          k = 0.1667 0.1667 0.1667 (  1463 PWs)   bands (ev):

   -90.5155 -88.2658 -50.8984 -50.8809 -50.8809 -48.7182 -48.7020 -48.7020
    -5.3272  -4.6017   6.6378   7.5515   7.5515   8.7150   9.3506   9.3506
    10.0637  10.0637  10.8943  11.5089  11.5089  11.5783  12.9638  12.9638
    16.3027  16.3027  17.7536  19.6997  25.3859  28.4383

     occupation numbers 
     1.0000   1.0000   1.0000   1.0000   1.0000   1.0000   1.0000   1.0000
     1.0000   1.0000   1.0000   1.0000   1.0000   1.0000   1.0000   1.0000
     1.0000   1.0000   1.0000   1.0000   1.0000   1.0000   1.0000   1.0000
     0.0000   0.0000   0.0000   0.0000   0.0000   0.0000

          k = 0.2917 0.1250 0.1250 (  1470 PWs)   bands (ev):

   -90.5153 -88.2657 -50.8982 -50.8825 -50.8813 -48.7180 -48.7037 -48.7024
    -5.2167  -4.6282   6.7811   7.5438   7.5802   8.6990   9.2549   9.2821
     9.6522  10.1280  10.9656  11.4809  11.6297  11.6365  12.7438  12.9078
    16.0063  16.3958  18.3725  19.9459  25.5501  28.1042

     occupation numbers 
     1.0000   1.0000   1.0000   1.0000   1.0000   1.0000   1.0000   1.0000
     1.0000   1.0000   1.0000   1.0000   1.0000   1.0000   1.0000   1.0000
     1.0000   1.0000   1.0000   1.0000   1.0000   1.0000   1.0000   1.0000
     0.0000   0.0000   0.0000   0.0000   0.0000   0.0000

          k =-1.0833 0.5833 0.5833 (  1463 PWs)   bands (ev):

   -90.5149 -88.2653 -50.8977 -50.8867 -50.8824 -48.7174 -48.7085 -48.7036
    -5.0115  -4.5764   6.7400   7.6305   7.6593   8.5301   8.9845   9.2048
     9.4221  10.2542  10.9122  11.5922  11.7302  11.7309  12.4635  12.4845
    15.7252  16.4832  19.4695  20.5628  25.7922  27.1831

     occupation numbers 
     1.0000   1.0000   1.0000   1.0000   1.0000   1.0000   1.0000   1.0000
     1.0000   1.0000   1.0000   1.0000   1.0000   1.0000   1.0000   1.0000
     1.0000   1.0000   1.0000   1.0000   1.0000   1.0000   1.0000   1.0000
     0.0000   0.0000   0.0000   0.0000   0.0000   0.0000

          k =-0.9583 0.5417 0.5417 (  1460 PWs)   bands (ev):

   -90.5145 -88.2648 -50.8969 -50.8923 -50.8838 -48.7165 -48.7150 -48.7053
    -4.7676  -4.4474   6.5577   7.6089   7.6503   8.1106   8.9653   9.2276
     9.5378  10.3636  10.6500  11.5012  11.8010  11.8255  12.2363  12.2513
    15.7230  16.5481  20.4828  21.1218  25.6445  26.2847

     occupation numbers 
     1.0000   1.0000   1.0000   1.0000   1.0000   1.0000   1.0000   1.0000
     1.0000   1.0000   1.0000   1.0000   1.0000   1.0000   1.0000   1.0000
     1.0000   1.0000   1.0000   1.0000   1.0000   1.0000   1.0000   1.0000
     0.0000   0.0000   0.0000   0.0000   0.0000   0.0000

          k =-0.8333 0.5000 0.5000 (  1451 PWs)   bands (ev):

   -90.5141 -88.2643 -50.8980 -50.8961 -50.8853 -48.7214 -48.7156 -48.7069
    -4.5441  -4.2772   6.3412   7.0758   7.6144   8.2892   8.8330   9.4012
     9.6289  10.3815  10.4752  11.3481  11.7586  11.7753  12.1338  12.3580
    15.9760  16.5817  21.0015  21.2821  24.7723  25.6933

     occupation numbers 
     1.0000   1.0000   1.0000   1.0000   1.0000   1.0000   1.0000   1.0000
     1.0000   1.0000   1.0000   1.0000   1.0000   1.0000   1.0000   1.0000
     1.0000   1.0000   1.0000   1.0000   1.0000   1.0000   1.0000   1.0000
     0.0000   0.0000   0.0000   0.0000   0.0000   0.0000

          k = 0.2500 0.2500 0.0833 (  1470 PWs)   bands (ev):

   -90.5153 -88.2657 -50.8982 -50.8825 -50.8813 -48.7180 -48.7037 -48.7024
    -5.1618  -4.6912   6.9281   7.5337   7.6021   8.5772   9.1540   9.3195
     9.7263  10.0348  10.9574  11.4237  11.4994  11.7741  12.6286  13.1269
    16.1677  16.2208  18.4888  19.8526  25.7295  27.7522

     occupation numbers 
     1.0000   1.0000   1.0000   1.0000   1.0000   1.0000   1.0000   1.0000
     1.0000   1.0000   1.0000   1.0000   1.0000   1.0000   1.0000   1.0000
     1.0000   1.0000   1.0000   1.0000   1.0000   1.0000   1.0000   1.0000
     0.0000   0.0000   0.0000   0.0000   0.0000   0.0000

          k =-1.1250 0.7083 0.5417 (  1459 PWs)   bands (ev):

   -90.5150 -88.2654 -50.8978 -50.8853 -50.8821 -48.7176 -48.7069 -48.7033
    -5.0033  -4.6755   6.9011   7.6047   7.6339   8.6779   8.8637   9.1138
     9.5353  10.1568  10.9973  11.4738  11.5130  11.8911  12.3755  12.8919
    15.9185  16.3148  19.2796  20.2536  25.9699  27.4282

     occupation numbers 
     1.0000   1.0000   1.0000   1.0000   1.0000   1.0000   1.0000   1.0000
     1.0000   1.0000   1.0000   1.0000   1.0000   1.0000   1.0000   1.0000
     1.0000   1.0000   1.0000   1.0000   1.0000   1.0000   1.0000   1.0000
     0.0000   0.0000   0.0000   0.0000   0.0000   0.0000

          k =-1.0000 0.6667 0.5000 (  1466 PWs)   bands (ev):

   -90.5146 -88.2649 -50.8972 -50.8900 -50.8836 -48.7168 -48.7123 -48.7050
    -4.7891  -4.5700   6.7028   7.6195   7.7555   8.2630   8.6930   9.2619
     9.5133  10.2377  10.9056  11.4810  11.5307  11.8692  12.2470  12.5942
    15.8081  16.3865  20.3010  20.7914  26.1928  26.5421

     occupation numbers 
     1.0000   1.0000   1.0000   1.0000   1.0000   1.0000   1.0000   1.0000
     1.0000   1.0000   1.0000   1.0000   1.0000   1.0000   1.0000   1.0000
     1.0000   1.0000   1.0000   1.0000   1.0000   1.0000   1.0000   1.0000
     0.0000   0.0000   0.0000   0.0000   0.0000   0.0000

          k =-0.8750 0.6250 0.4583 (  1462 PWs)   bands (ev):

   -90.5142 -88.2645 -50.8964 -50.8954 -50.8853 -48.7185 -48.7159 -48.7069
    -4.5785  -4.3930   6.5287   7.2430   7.6496   8.2444   8.5975   9.4812
     9.6637  10.1728  10.6864  11.3704  11.5855  11.7455  12.3251  12.4591
    15.9292  16.4498  21.0284  21.1603  25.1774  25.9022

     occupation numbers 
     1.0000   1.0000   1.0000   1.0000   1.0000   1.0000   1.0000   1.0000
     1.0000   1.0000   1.0000   1.0000   1.0000   1.0000   1.0000   1.0000
     1.0000   1.0000   1.0000   1.0000   1.0000   1.0000   1.0000   1.0000
     0.0000   0.0000   0.0000   0.0000   0.0000   0.0000

          k =-0.6667-0.6667 1.0000 (  1463 PWs)   bands (ev):

   -90.5149 -88.2653 -50.8976 -50.8867 -50.8824 -48.7174 -48.7085 -48.7036
    -4.8942  -4.7036   6.9088   7.6338   7.6570   8.5131   8.7618   9.2162
     9.4852  10.1797  10.9416  11.4443  11.4733  12.0190  12.2420  12.9005
    15.9013  16.3336  19.5418  20.3727  26.1842  26.9465

     occupation numbers 
     1.0000   1.0000   1.0000   1.0000   1.0000   1.0000   1.0000   1.0000
     1.0000   1.0000   1.0000   1.0000   1.0000   1.0000   1.0000   1.0000
     1.0000   1.0000   1.0000   1.0000   1.0000   1.0000   1.0000   1.0000
     0.0000   0.0000   0.0000   0.0000   0.0000   0.0000

          k =-0.5417-0.7083 0.9583 (  1467 PWs)   bands (ev):

   -90.5146 -88.2650 -50.8972 -50.8900 -50.8836 -48.7168 -48.7123 -48.7050
    -4.7295  -4.6321   6.7522   7.6098   7.7196   8.2965   8.6561   9.2406
     9.5316  10.2289  10.9055  11.4416  11.4458  11.9378  12.2342  12.6969
    15.8829  16.3309  20.2864  20.7164  26.4076  26.4579

     occupation numbers 
     1.0000   1.0000   1.0000   1.0000   1.0000   1.0000   1.0000   1.0000
     1.0000   1.0000   1.0000   1.0000   1.0000   1.0000   1.0000   1.0000
     1.0000   1.0000   1.0000   1.0000   1.0000   1.0000   1.0000   1.0000
     0.0000   0.0000   0.0000   0.0000   0.0000   0.0000

          k =-0.4167-0.7500 0.9167 (  1468 PWs)   bands (ev):

   -90.5142 -88.2645 -50.8965 -50.8941 -50.8857 -48.7170 -48.7160 -48.7073
    -4.5702  -4.4569   6.6375   7.3479   7.7509   8.1511   8.3608   9.5886
     9.6349  10.0644  10.8978  11.2765  11.4893  11.7084  12.3309  12.6570
    15.9967  16.2637  21.1063  21.1310  25.6152  25.7615

     occupation numbers 
     1.0000   1.0000   1.0000   1.0000   1.0000   1.0000   1.0000   1.0000
     1.0000   1.0000   1.0000   1.0000   1.0000   1.0000   1.0000   1.0000
     1.0000   1.0000   1.0000   1.0000   1.0000   1.0000   1.0000   1.0000
     0.0000   0.0000   0.0000   0.0000   0.0000   0.0000

          k =-0.5833-0.5833 0.9167 (  1461 PWs)   bands (ev):

   -90.5145 -88.2648 -50.8969 -50.8923 -50.8838 -48.7165 -48.7150 -48.7053
    -4.6673  -4.5531   6.6383   7.4889   7.6611   8.1869   8.9057   9.2284
     9.5690  10.3443  10.6001  11.4186  11.6159  11.9255  12.2842  12.4631
    15.8149  16.5091  20.5634  20.8008  25.7851  26.3063

     occupation numbers 
     1.0000   1.0000   1.0000   1.0000   1.0000   1.0000   1.0000   1.0000
     1.0000   1.0000   1.0000   1.0000   1.0000   1.0000   1.0000   1.0000
     1.0000   1.0000   1.0000   1.0000   1.0000   1.0000   1.0000   1.0000
     0.0000   0.0000   0.0000   0.0000   0.0000   0.0000

          k = 0.2083 0.2083 0.2083 (  1478 PWs)   bands (ev):

   -90.5155 -88.2658 -50.8984 -50.8809 -50.8809 -48.7183 -48.7020 -48.7020
    -5.1642  -4.7898   7.1075   7.5835   7.5835   8.2473   9.3715   9.3715
     9.9580   9.9580  10.7877  11.4767  11.4767  11.5321  13.0941  13.0941
    16.2436  16.2436  18.3405  19.3567  25.9244  27.4858

     occupation numbers 
     1.0000   1.0000   1.0000   1.0000   1.0000   1.0000   1.0000   1.0000
     1.0000   1.0000   1.0000   1.0000   1.0000   1.0000   1.0000   1.0000
     1.0000   1.0000   1.0000   1.0000   1.0000   1.0000   1.0000   1.0000
     0.0000   0.0000   0.0000   0.0000   0.0000   0.0000

          k =-1.1667 0.6667 0.6667 (  1467 PWs)   bands (ev):

   -90.5153 -88.2657 -50.8982 -50.8825 -50.8813 -48.7180 -48.7037 -48.7024
    -5.0532  -4.8101   7.1404   7.5521   7.6081   8.3553   9.2234   9.2996
     9.6194  10.0385  10.9183  11.5364  11.5368  11.5669  12.9031  12.9429
    16.0242  16.3172  18.9185  19.5410  26.1619  27.2137

     occupation numbers 
     1.0000   1.0000   1.0000   1.0000   1.0000   1.0000   1.0000   1.0000
     1.0000   1.0000   1.0000   1.0000   1.0000   1.0000   1.0000   1.0000
     1.0000   1.0000   1.0000   1.0000   1.0000   1.0000   1.0000   1.0000
     0.0000   0.0000   0.0000   0.0000   0.0000   0.0000

          k =-1.0417 0.6250 0.6250 (  1460 PWs)   bands (ev):

   -90.5149 -88.2653 -50.8976 -50.8867 -50.8824 -48.7174 -48.7085 -48.7036
    -4.8667  -4.7318   6.8766   7.6515   7.6923   8.4935   8.8028   9.2116
     9.4432  10.1941  10.9149  11.5315  11.5891  11.8340  12.3843  12.7140
    15.7968  16.4144  19.9347  20.0740  26.4041  26.9819

     occupation numbers 
     1.0000   1.0000   1.0000   1.0000   1.0000   1.0000   1.0000   1.0000
     1.0000   1.0000   1.0000   1.0000   1.0000   1.0000   1.0000   1.0000
     1.0000   1.0000   1.0000   1.0000   1.0000   1.0000   1.0000   1.0000
     0.0000   0.0000   0.0000   0.0000   0.0000   0.0000

          k =-0.7083-0.7083 1.1250 (  1465 PWs)   bands (ev):

   -90.5153 -88.2657 -50.8982 -50.8825 -50.8813 -48.7180 -48.7037 -48.7024
    -4.9919  -4.8744   7.2355   7.5323   7.6164   8.2838   9.1822   9.3146
     9.6518  10.0025  10.9143  11.4691  11.5165  11.6406  12.8047  13.0768
    16.0841  16.2521  19.0396  19.4275  26.3988  26.9206

     occupation numbers 
     1.0000   1.0000   1.0000   1.0000   1.0000   1.0000   1.0000   1.0000
     1.0000   1.0000   1.0000   1.0000   1.0000   1.0000   1.0000   1.0000
     1.0000   1.0000   1.0000   1.0000   1.0000   1.0000   1.0000   1.0000
     0.0000   0.0000   0.0000   0.0000   0.0000   0.0000

          k =-0.5833-0.7500 1.0833 (  1464 PWs)   bands (ev):

   -90.5150 -88.2654 -50.8978 -50.8853 -50.8821 -48.7176 -48.7069 -48.7033
    -4.8585  -4.8268   6.9912   7.6371   7.6487   8.5712   8.8572   9.0886
     9.5319  10.1290  10.9820  11.4800  11.5738  11.7828  12.4622  12.8693
    15.9285  16.2915  19.7834  19.7920  26.6441  26.7297

     occupation numbers 
     1.0000   1.0000   1.0000   1.0000   1.0000   1.0000   1.0000   1.0000
     1.0000   1.0000   1.0000   1.0000   1.0000   1.0000   1.0000   1.0000
     1.0000   1.0000   1.0000   1.0000   1.0000   1.0000   1.0000   1.0000
     0.0000   0.0000   0.0000   0.0000   0.0000   0.0000

          k =-0.2500-0.2500-0.2500 (  1466 PWs)   bands (ev):

   -90.5154 -88.2658 -50.8984 -50.8809 -50.8809 -48.7183 -48.7020 -48.7020
    -4.9859  -4.9773   7.4699   7.5956   7.5956   7.8814   9.3803   9.3803
     9.9186   9.9186  10.7555  11.4659  11.4659  11.5151  13.1407  13.1407
    16.2214  16.2214  18.8254  18.9555  26.5670  26.7033

     occupation numbers 
     1.0000   1.0000   1.0000   1.0000   1.0000   1.0000   1.0000   1.0000
     1.0000   1.0000   1.0000   1.0000   1.0000   1.0000   1.0000   1.0000
     1.0000   1.0000   1.0000   1.0000   1.0000   1.0000   1.0000   1.0000
     0.0000   0.0000   0.0000   0.0000   0.0000   0.0000

     the Fermi energy is    13.1403 ev
     (compare with:    14.2497 eV, computed in scf)

     Writing all to output data dir ./nio_hub.save/

     init_run     :      4.99s CPU      5.35s WALL (       1 calls)
     electrons    :    601.47s CPU    605.29s WALL (       1 calls)

     Called by init_run:
     wfcinit      :      3.18s CPU      3.29s WALL (       1 calls)
     wfcinit:atom :      0.20s CPU      0.23s WALL (     378 calls)
     wfcinit:wfcr :     39.37s CPU     40.10s WALL (     378 calls)
     potinit      :      0.61s CPU      0.65s WALL (       1 calls)
     hinit0       :      0.79s CPU      0.84s WALL (       1 calls)

     Called by electrons:
     c_bands      :    601.22s CPU    604.95s WALL (       1 calls)
     v_of_rho     :      0.54s CPU      0.58s WALL (       1 calls)
     v_h          :      0.01s CPU      0.01s WALL (       1 calls)
     v_xc         :      0.53s CPU      0.57s WALL (       1 calls)
     newd         :      0.32s CPU      0.47s WALL (       1 calls)

     Called by c_bands:
     init_us_2    :      0.47s CPU      0.52s WALL (     756 calls)
     init_us_2:cp :      0.47s CPU      0.52s WALL (     756 calls)
     cegterg      :    559.71s CPU    562.41s WALL (     737 calls)

     Called by sum_band:

     Called by *egterg:
     cdiaghg      :     12.35s CPU     12.42s WALL (   10934 calls)
     cegterg:over :     34.02s CPU     34.21s WALL (   10556 calls)
     cegterg:upda :     15.80s CPU     15.87s WALL (   10556 calls)
     cegterg:last :     45.22s CPU     45.41s WALL (    5892 calls)
     h_psi        :    465.82s CPU    468.69s WALL (   11671 calls)
     s_psi        :     19.64s CPU     19.77s WALL (   12049 calls)
     g_psi        :      0.83s CPU      0.83s WALL (   10556 calls)

     Called by h_psi:
     h_psi:calbec :     23.10s CPU     23.28s WALL (   11671 calls)
     vloc_psi     :    416.76s CPU    419.32s WALL (   11671 calls)
     add_vuspsi   :     18.34s CPU     18.46s WALL (   11671 calls)
     vhpsi        :      6.92s CPU      6.95s WALL (   11671 calls)

     General routines
     calbec       :     28.22s CPU     28.49s WALL (   23720 calls)
     fft          :      0.24s CPU      0.24s WALL (      23 calls)
     ffts         :      0.00s CPU      0.00s WALL (       2 calls)
     fftw         :    380.63s CPU    383.25s WALL (  391858 calls)
     interpolate  :      0.03s CPU      0.03s WALL (       2 calls)
     davcio       :      0.22s CPU      0.30s WALL (    1512 calls)

     Parallel routines

     Hubbard U routines
     vhpsi        :      6.92s CPU      6.95s WALL (   11671 calls)

     PWSCF        :  10m 6.91s CPU  10m11.95s WALL


   This run was terminated on:  19:12:53   1Feb2022            

=------------------------------------------------------------------------------=
   JOB DONE.
=------------------------------------------------------------------------------=
